<?xml version="1.0"?>
<VTKFile type="UnstructuredGrid" version="0.1">
  <UnstructuredGrid>
    <Piece NumberOfPoints="1183" NumberOfCells="936">
      <Points>
        <DataArray type="Float64" NumberOfComponents="3" format="ascii">
  -5.00000000E-01  -5.00000000E-01   0.00000000E+00
   5.00000000E-01  -5.00000000E-01   0.00000000E+00
   5.00000000E-01   5.00000000E-01   0.00000000E+00
  -5.00000000E-01   5.00000000E-01   0.00000000E+00
   0.00000000E+00   0.00000000E+00   0.00000000E+00
   0.00000000E+00   3.50000000E-01   0.00000000E+00
  -3.50000000E-01   0.00000000E+00   0.00000000E+00
   0.00000000E+00  -3.50000000E-01   0.00000000E+00
   3.50000000E-01   0.00000000E+00   0.00000000E+00
   2.47487373E-01   2.47487373E-01   0.00000000E+00
  -2.47487373E-01   2.47487373E-01   0.00000000E+00
  -2.47487373E-01  -2.47487373E-01   0.00000000E+00
   2.47487373E-01  -2.47487373E-01   0.00000000E+00
   0.00000000E+00   3.00000000E-01   0.00000000E+00
  -3.00000000E-01   0.00000000E+00   0.00000000E+00
   0.00000000E+00  -3.00000000E-01   0.00000000E+00
   3.00000000E-01   0.00000000E+00   0.00000000E+00
  -1.67083203E-01   1.67083203E-01   0.00000000E+00
  -1.67083203E-01  -1.67083203E-01   0.00000000E+00
   1.67083203E-01  -1.67083203E-01   0.00000000E+00
   1.67083203E-01   1.67083203E-01   0.00000000E+00
   0.00000000E+00  -5.00000000E-01   0.00000000E+00
   5.00000000E-01   0.00000000E+00   0.00000000E+00
   0.00000000E+00   5.00000000E-01   0.00000000E+00
  -5.00000000E-01   0.00000000E+00   0.00000000E+00
   0.00000000E+00   5.00000000E-01   1.00000000E+00
  -5.00000000E-01   5.00000000E-01   1.00000000E+00
  -2.47487373E-01   2.47487373E-01   1.00000000E+00
   0.00000000E+00   0.00000000E+00   1.00000000E+00
   0.00000000E+00   3.50000000E-01   1.00000000E+00
   5.00000000E-01   5.00000000E-01   1.00000000E+00
   2.47487373E-01   2.47487373E-01   1.00000000E+00
   5.00000000E-01   0.00000000E+00   1.00000000E+00
   3.50000000E-01   0.00000000E+00   1.00000000E+00
   5.00000000E-01  -5.00000000E-01   1.00000000E+00
   2.47487373E-01  -2.47487373E-01   1.00000000E+00
   0.00000000E+00  -5.00000000E-01   1.00000000E+00
   0.00000000E+00  -3.50000000E-01   1.00000000E+00
  -5.00000000E-01  -5.00000000E-01   1.00000000E+00
  -2.47487373E-01  -2.47487373E-01   1.00000000E+00
  -5.00000000E-01   0.00000000E+00   1.00000000E+00
  -3.50000000E-01   0.00000000E+00   1.00000000E+00
  -1.67083203E-01   1.67083203E-01   1.00000000E+00
   0.00000000E+00   3.00000000E-01   1.00000000E+00
  -3.00000000E-01   0.00000000E+00   1.00000000E+00
  -1.67083203E-01  -1.67083203E-01   1.00000000E+00
   0.00000000E+00  -3.00000000E-01   1.00000000E+00
   1.67083203E-01  -1.67083203E-01   1.00000000E+00
   3.00000000E-01   0.00000000E+00   1.00000000E+00
   1.67083203E-01   1.67083203E-01   1.00000000E+00
  -3.33333333E-01  -5.00000000E-01   0.00000000E+00
  -1.66666667E-01  -5.00000000E-01   0.00000000E+00
   1.66666667E-01  -5.00000000E-01   0.00000000E+00
   3.33333333E-01  -5.00000000E-01   0.00000000E+00
   5.00000000E-01  -3.33333333E-01   0.00000000E+00
   5.00000000E-01  -1.66666667E-01   0.00000000E+00
   5.00000000E-01   1.66666667E-01   0.00000000E+00
   5.00000000E-01   3.33333333E-01   0.00000000E+00
   3.33333333E-01   5.00000000E-01   0.00000000E+00
   1.66666667E-01   5.00000000E-01   0.00000000E+00
  -1.66666667E-01   5.00000000E-01   0.00000000E+00
  -3.33333333E-01   5.00000000E-01   0.00000000E+00
  -5.00000000E-01   3.33333333E-01   0.00000000E+00
  -5.00000000E-01   1.66666667E-01   0.00000000E+00
  -5.00000000E-01  -1.66666667E-01   0.00000000E+00
  -5.00000000E-01  -3.33333333E-01   0.00000000E+00
  -9.05866661E-02   3.38074039E-01   0.00000000E+00
  -1.75000000E-01   3.03108891E-01   0.00000000E+00
  -3.03108891E-01   1.75000000E-01   0.00000000E+00
  -3.38074039E-01   9.05866654E-02   0.00000000E+00
  -3.38074039E-01  -9.05866661E-02   0.00000000E+00
  -3.03108891E-01  -1.75000000E-01   0.00000000E+00
  -1.75000000E-01  -3.03108891E-01   0.00000000E+00
  -9.05866654E-02  -3.38074039E-01   0.00000000E+00
   9.05866661E-02  -3.38074039E-01   0.00000000E+00
   1.75000000E-01  -3.03108891E-01   0.00000000E+00
   3.03108891E-01  -1.75000000E-01   0.00000000E+00
   3.38074039E-01  -9.05866654E-02   0.00000000E+00
   3.38074039E-01   9.05866661E-02   0.00000000E+00
   3.03108891E-01   1.75000000E-01   0.00000000E+00
   1.75000000E-01   3.03108891E-01   0.00000000E+00
   9.05866654E-02   3.38074039E-01   0.00000000E+00
  -4.36871843E-01   4.36871843E-01   0.00000000E+00
  -3.73743687E-01   3.73743687E-01   0.00000000E+00
  -3.10615530E-01   3.10615530E-01   0.00000000E+00
  -4.36871843E-01  -4.36871843E-01   0.00000000E+00
  -3.73743687E-01  -3.73743687E-01   0.00000000E+00
  -3.10615530E-01  -3.10615530E-01   0.00000000E+00
   4.36871843E-01  -4.36871843E-01   0.00000000E+00
   3.73743687E-01  -3.73743687E-01   0.00000000E+00
   3.10615530E-01  -3.10615530E-01   0.00000000E+00
   4.36871843E-01   4.36871843E-01   0.00000000E+00
   3.73743687E-01   3.73743687E-01   0.00000000E+00
   3.10615530E-01   3.10615530E-01   0.00000000E+00
   0.00000000E+00   4.62500000E-01   0.00000000E+00
   0.00000000E+00   4.25000000E-01   0.00000000E+00
   0.00000000E+00   3.87500000E-01   0.00000000E+00
  -4.62500000E-01   0.00000000E+00   0.00000000E+00
  -4.25000000E-01   0.00000000E+00   0.00000000E+00
  -3.87500000E-01   0.00000000E+00   0.00000000E+00
   0.00000000E+00  -4.62500000E-01   0.00000000E+00
   0.00000000E+00  -4.25000000E-01   0.00000000E+00
   0.00000000E+00  -3.87500000E-01   0.00000000E+00
   4.62500000E-01   0.00000000E+00   0.00000000E+00
   4.25000000E-01   0.00000000E+00   0.00000000E+00
   3.87500000E-01   0.00000000E+00   0.00000000E+00
  -5.89939545E-02   2.59951156E-01   0.00000000E+00
  -1.14794611E-01   2.15561029E-01   0.00000000E+00
  -2.15561030E-01   1.14794610E-01   0.00000000E+00
  -2.59951156E-01   5.89939540E-02   0.00000000E+00
  -2.59951156E-01  -5.89939545E-02   0.00000000E+00
  -2.15561029E-01  -1.14794611E-01   0.00000000E+00
  -1.14794610E-01  -2.15561030E-01   0.00000000E+00
  -5.89939540E-02  -2.59951156E-01   0.00000000E+00
   5.89939545E-02  -2.59951156E-01   0.00000000E+00
   1.14794611E-01  -2.15561029E-01   0.00000000E+00
   2.15561030E-01  -1.14794610E-01   0.00000000E+00
   2.59951156E-01  -5.89939540E-02   0.00000000E+00
   2.59951156E-01   5.89939545E-02   0.00000000E+00
   2.15561029E-01   1.14794611E-01   0.00000000E+00
   1.14794610E-01   2.15561030E-01   0.00000000E+00
   5.89939540E-02   2.59951156E-01   0.00000000E+00
  -5.56944011E-02   5.56944011E-02   0.00000000E+00
  -1.11388802E-01   1.11388802E-01   0.00000000E+00
  -5.56944011E-02  -5.56944011E-02   0.00000000E+00
  -1.11388802E-01  -1.11388802E-01   0.00000000E+00
   5.56944011E-02  -5.56944011E-02   0.00000000E+00
   1.11388802E-01  -1.11388802E-01   0.00000000E+00
   5.56944011E-02   5.56944011E-02   0.00000000E+00
   1.11388802E-01   1.11388802E-01   0.00000000E+00
  -1.66666667E-01   5.00000000E-01   1.00000000E+00
  -3.33333333E-01   5.00000000E-01   1.00000000E+00
  -4.36871843E-01   4.36871843E-01   1.00000000E+00
  -3.73743687E-01   3.73743687E-01   1.00000000E+00
  -3.10615530E-01   3.10615530E-01   1.00000000E+00
  -1.75000000E-01   3.03108891E-01   1.00000000E+00
  -9.05866661E-02   3.38074039E-01   1.00000000E+00
   0.00000000E+00   3.87500000E-01   1.00000000E+00
   0.00000000E+00   4.25000000E-01   1.00000000E+00
   0.00000000E+00   4.62500000E-01   1.00000000E+00
   0.00000000E+00   5.00000000E-01   1.66666667E-01
   0.00000000E+00   5.00000000E-01   3.33333333E-01
   0.00000000E+00   5.00000000E-01   5.00000000E-01
   0.00000000E+00   5.00000000E-01   6.66666667E-01
   0.00000000E+00   5.00000000E-01   8.33333333E-01
  -5.00000000E-01   5.00000000E-01   1.66666667E-01
  -5.00000000E-01   5.00000000E-01   3.33333333E-01
  -5.00000000E-01   5.00000000E-01   5.00000000E-01
  -5.00000000E-01   5.00000000E-01   6.66666667E-01
  -5.00000000E-01   5.00000000E-01   8.33333333E-01
  -2.47487373E-01   2.47487373E-01   1.66666667E-01
  -2.47487373E-01   2.47487373E-01   3.33333333E-01
  -2.47487373E-01   2.47487373E-01   5.00000000E-01
  -2.47487373E-01   2.47487373E-01   6.66666667E-01
  -2.47487373E-01   2.47487373E-01   8.33333333E-01
   0.00000000E+00   3.50000000E-01   1.66666667E-01
   0.00000000E+00   3.50000000E-01   3.33333333E-01
   0.00000000E+00   3.50000000E-01   5.00000000E-01
   0.00000000E+00   3.50000000E-01   6.66666667E-01
   0.00000000E+00   3.50000000E-01   8.33333333E-01
   3.33333333E-01   5.00000000E-01   1.00000000E+00
   1.66666667E-01   5.00000000E-01   1.00000000E+00
   9.05866654E-02   3.38074039E-01   1.00000000E+00
   1.75000000E-01   3.03108891E-01   1.00000000E+00
   3.10615530E-01   3.10615530E-01   1.00000000E+00
   3.73743687E-01   3.73743687E-01   1.00000000E+00
   4.36871843E-01   4.36871843E-01   1.00000000E+00
   5.00000000E-01   5.00000000E-01   1.66666667E-01
   5.00000000E-01   5.00000000E-01   3.33333333E-01
   5.00000000E-01   5.00000000E-01   5.00000000E-01
   5.00000000E-01   5.00000000E-01   6.66666667E-01
   5.00000000E-01   5.00000000E-01   8.33333333E-01
   2.47487373E-01   2.47487373E-01   1.66666667E-01
   2.47487373E-01   2.47487373E-01   3.33333333E-01
   2.47487373E-01   2.47487373E-01   5.00000000E-01
   2.47487373E-01   2.47487373E-01   6.66666667E-01
   2.47487373E-01   2.47487373E-01   8.33333333E-01
   5.00000000E-01   1.66666667E-01   1.00000000E+00
   5.00000000E-01   3.33333333E-01   1.00000000E+00
   3.03108891E-01   1.75000000E-01   1.00000000E+00
   3.38074039E-01   9.05866661E-02   1.00000000E+00
   3.87500000E-01   0.00000000E+00   1.00000000E+00
   4.25000000E-01   0.00000000E+00   1.00000000E+00
   4.62500000E-01   0.00000000E+00   1.00000000E+00
   5.00000000E-01   0.00000000E+00   1.66666667E-01
   5.00000000E-01   0.00000000E+00   3.33333333E-01
   5.00000000E-01   0.00000000E+00   5.00000000E-01
[...]
      <PointData Vectors="Displacement">
        <DataArray type="Float64" Name="Displacement" NumberOfComponents="3" format="ascii">
  -5.77807358E-17  -2.49016760E-15  -5.34875424E-16
   2.36553932E-15  -4.04492624E-15   6.03477484E-15
  -5.64174035E-15  -5.02489046E-17   1.12380833E-15
   1.66887861E-16  -4.26504706E-15  -8.50745100E-16
  -1.75979877E-14   1.74482327E-15   9.95407392E-14
  -1.72833755E-14   1.84418860E-15   7.44151630E-13
  -1.72335646E-14   2.54462169E-15   3.38210582E-01
  -1.81258305E-14   1.69781588E-15  -5.44887855E-13
  -1.72167362E-14   1.21545694E-15  -3.38210582E-01
  -1.52331266E-14   1.13295080E-15  -2.39846003E-01
  -1.70238819E-14   2.30574656E-15   2.39846003E-01
  -1.77281645E-14   2.09561662E-15   2.39846003E-01
  -1.73781749E-14   1.13055855E-15  -2.39846003E-01
  -1.67997175E-14   1.80099381E-15   1.78317048E-13
  -1.66988586E-14   2.47252865E-15   2.90034655E-01
  -1.72562546E-14   1.85802507E-15   2.08730349E-14
  -1.68252848E-14   1.11142221E-15  -2.90034655E-01
  -1.67044761E-14   2.05526142E-15   1.61803565E-01
  -1.75751883E-14   2.08180027E-15   1.61803565E-01
  -1.81668211E-14   1.44473942E-15  -1.61803565E-01
  -1.68603710E-14   1.53866227E-15  -1.61803565E-01
  -6.01997943E-15   2.36951174E-15   9.85468783E-14
  -1.74734576E-14   6.26097845E-16   1.00722895E-13
  -6.09159732E-15   2.41466972E-15   9.87045038E-14
  -1.75505598E-14   2.51885902E-15   9.73017913E-14
  -6.68081843E-15   3.31631607E-15   9.90401914E-14
  -1.47994497E-15  -2.68777551E-16  -3.61385802E-17
  -1.96907865E-14   4.02540061E-15   2.39846003E-01
  -2.01703225E-14   3.45431676E-15   9.96127406E-14
  -1.90534948E-14   3.36330033E-15   7.44026048E-13
  -1.20565616E-15  -4.55665630E-15   4.46423402E-15
  -2.14335968E-14   2.94078533E-15  -2.39846003E-01
  -2.02769532E-14   1.61103493E-15   1.03230622E-13
  -2.05026182E-14   2.50525509E-15  -3.38210582E-01
  -1.39017671E-15  -9.57888048E-16   3.55096139E-15
  -2.12425091E-14   2.77077590E-15  -2.39846003E-01
  -5.38625970E-14   3.33767702E-15   1.02461583E-13
  -2.12749247E-14   3.39159951E-15  -5.44758069E-13
  -5.72104024E-15  -6.43368844E-16   1.30312227E-15
  -2.11197018E-14   4.00454510E-15   2.39846003E-01
  -2.09989191E-14   5.16421138E-15   9.78460326E-14
  -2.07838061E-14   4.20858952E-15   3.38210582E-01
  -2.03777218E-14   3.90972889E-15   1.61803565E-01
  -1.98087918E-14   3.40040412E-15   1.78188569E-13
  -2.14423451E-14   4.09648481E-15   2.90034655E-01
  -2.10252354E-14   3.74934865E-15   1.61803565E-01
  -2.19341293E-14   3.26052004E-15   2.10542486E-14
  -2.00939770E-14   2.95673714E-15  -1.61803565E-01
  -2.09082711E-14   2.69319731E-15  -2.90034655E-01
  -2.01304980E-14   2.91045052E-15  -1.61803565E-01
  -1.57169178E-14  -9.96901887E-16   8.10009040E-02
  -1.93971691E-14   4.18845165E-15   8.89826544E-02
  -1.84817435E-14   1.85862751E-15  -8.89826544E-02
  -8.54110389E-15   1.03249671E-15  -8.10009040E-02
  -1.64433065E-14   2.55411152E-16   1.06704462E-11
  -1.78963687E-14   7.28680982E-16  -7.33383124E-12
  -1.75331552E-14   1.44427793E-15   7.52847987E-12
  -2.00069914E-14   2.49969527E-15  -1.04722612E-11
  -3.14464379E-14   9.51360583E-16  -8.10009040E-02
  -1.83402701E-14   1.86645397E-15  -8.89826544E-02
  -1.94539169E-14   4.25451881E-15   8.89826544E-02
  -1.55033465E-14  -6.04720296E-16   8.10009040E-02
  -1.76534935E-14   6.05247515E-16  -1.04711484E-11
  -1.74148597E-14   2.22187597E-15   7.52662400E-12
  -1.77542144E-14   2.44286987E-15  -7.33697761E-12
  -1.79304522E-14   1.54893475E-15   1.06653407E-11
  -1.59919639E-14   1.97991032E-15   8.80299716E-02
  -1.66448294E-14   2.03673495E-15   1.69848848E-01
  -1.61721336E-14   2.28422243E-15   2.93370423E-01
  -1.69535100E-14   2.47479831E-15   3.26844545E-01
  -1.69468644E-14   2.38932318E-15   3.26844544E-01
  -1.73919858E-14   2.29490526E-15   2.93370423E-01
  -1.83560144E-14   2.13791722E-15   1.69848848E-01
  -1.74132278E-14   1.95398215E-15   8.80299710E-02
  -1.73451320E-14   1.54240804E-15  -8.80299716E-02
  -1.73846301E-14   1.42953552E-15  -1.69848848E-01
  -1.69779010E-14   1.03880690E-15  -2.93370423E-01
  -1.64260861E-14   1.08510931E-15  -3.26844545E-01
  -1.74574239E-14   1.10450576E-15  -3.26844544E-01
  -1.65528526E-14   1.09179469E-15  -2.93370423E-01
  -1.69155265E-14   1.42516901E-15  -1.69848848E-01
  -1.68381480E-14   1.60453244E-15  -8.80299710E-02
  -1.16045372E-14  -2.68713529E-15   3.65372707E-02
  -1.43975089E-14  -5.23124255E-16   8.19341662E-02
  -1.63733644E-14   1.27626974E-15   1.45437708E-01
  -1.06180067E-14   1.35185814E-15   3.65372707E-02
  -1.61044002E-14   2.61198815E-15   8.19341662E-02
  -1.75099342E-14   2.49812711E-15   1.45437708E-01
  -8.19710252E-15  -2.08236968E-15  -3.65372707E-02
  -1.33267054E-14  -1.02035854E-15  -8.19341662E-02
  -1.60329325E-14   1.93872833E-16  -1.45437708E-01
  -1.60205138E-14   3.36815881E-15  -3.65372707E-02
  -1.72642899E-14   2.46056305E-15  -8.19341662E-02
  -1.68079750E-14   1.58260309E-15  -1.45437708E-01
  -1.24457605E-14   2.40565783E-15   3.32336083E-12
  -1.46657090E-14   2.11852575E-15   5.06666746E-12
  -1.59780810E-14   1.92952772E-15   4.94346826E-12
  -1.78300056E-14   2.46575734E-15   7.93552087E-02
  -1.79464203E-14   2.48960566E-15   1.60129188E-01
  -1.69088144E-14   2.46225095E-15   2.45261683E-01
  -1.30375621E-14   2.26031005E-15  -3.12565674E-12
  -1.56473547E-14   2.17804992E-15  -4.86850046E-12
  -1.71661198E-14   1.84510794E-15  -4.74478369E-12
  -1.67964202E-14   7.66172821E-16  -7.93552087E-02
  -1.69748200E-14   9.03164018E-16  -1.60129188E-01
  -1.66928969E-14   1.01166543E-15  -2.45261683E-01
  -1.64039975E-14   1.96260032E-15   5.72249316E-02
  -1.63488548E-14   1.94664369E-15   1.11252358E-01
  -1.69451507E-14   2.20704797E-15   2.08604697E-01
  -1.69017443E-14   2.32300826E-15   2.51421391E-01
  -1.72430901E-14   2.38784078E-15   2.51421390E-01
  -1.73000313E-14   2.38523805E-15   2.08604696E-01
  -1.77445760E-14   1.90164882E-15   1.11252358E-01
  -1.77062070E-14   1.82544824E-15   5.72249311E-02
  -1.79267768E-14   1.65466854E-15  -5.72249316E-02
  -1.75002487E-14   1.48634943E-15  -1.11252358E-01
  -1.66732839E-14   1.26913066E-15  -2.08604697E-01
  -1.68829139E-14   1.30228242E-15  -2.51421391E-01
  -1.67403312E-14   1.27584471E-15  -2.51421390E-01
  -1.70207393E-14   1.44277693E-15  -2.08604696E-01
  -1.70947806E-14   1.45876941E-15  -1.11252358E-01
  -1.64001401E-14   1.69132267E-15  -5.72249311E-02
  -1.70663897E-14   1.92524309E-15   5.39051183E-02
  -1.69626054E-14   1.97131203E-15   1.07832163E-01
  -1.74676236E-14   1.86442206E-15   5.39051183E-02
  -1.76093653E-14   1.99561818E-15   1.07832163E-01
  -1.74922125E-14   1.64961118E-15  -5.39051183E-02
  -1.73491636E-14   1.56852629E-15  -1.07832163E-01
  -1.72730969E-14   1.67130532E-15  -5.39051183E-02
  -1.66043765E-14   1.51099053E-15  -1.07832163E-01
  -1.47970608E-14   4.64121714E-15   8.89826544E-02
  -1.39889038E-14   6.13238016E-15   8.10009040E-02
  -9.69337675E-15   2.13741589E-15   3.65372707E-02
  -1.57689662E-14   3.33776485E-15   8.19341662E-02
  -1.78992020E-14   3.99795986E-15   1.45437708E-01
  -1.97472907E-14   3.92692207E-15   1.69848848E-01
  -2.03726661E-14   3.56833688E-15   8.80299716E-02
  -1.83869872E-14   3.33234586E-15   4.94324069E-12
  -1.68246168E-14   3.35633951E-15   5.06647969E-12
  -1.33970878E-14   3.31595901E-15   3.32310921E-12
  -1.82549059E-14   2.14672391E-15   9.82381162E-14
  -1.66095558E-14   2.29174312E-15   9.82171890E-14
  -1.74602277E-14   2.58774270E-15   9.75611668E-14
  -1.74123112E-14   2.85009655E-15   9.77981915E-14
  -1.87899776E-14   3.10261919E-15   9.77297978E-14
  -1.76630266E-14   2.41161748E-15   7.55004612E-14
  -1.68493833E-14   3.36489514E-15   8.74004329E-14
  -1.76611825E-14   4.11532318E-15   8.89614774E-14
  -1.70894947E-14   4.40705849E-15   8.79766722E-14
  -1.75558343E-14   5.36700313E-15   7.49075274E-14
  -1.72000206E-14   2.54195586E-15   2.39846003E-01
  -1.78555694E-14   2.80089420E-15   2.39846003E-01
  -1.84368161E-14   3.05535562E-15   2.39846003E-01
  -1.89495317E-14   3.35922596E-15   2.39846003E-01
  -1.95686826E-14   3.67186511E-15   2.39846003E-01
  -1.68359833E-14   1.98935630E-15   7.44168739E-13
  -1.75628099E-14   2.28360368E-15   7.44056584E-13
  -1.81176350E-14   2.55991069E-15   7.44006858E-13
  -1.86635349E-14   2.79542031E-15   7.43959000E-13
  -1.94294996E-14   3.10074016E-15   7.43985682E-13
  -1.59759923E-14   2.00410268E-15  -8.10009040E-02
  -1.63343100E-14   2.41530884E-15  -8.89826544E-02
  -1.95694564E-14   3.07308691E-15  -8.80299710E-02
  -1.95631309E-14   2.95764890E-15  -1.69848848E-01
  -1.93209993E-14   2.52415580E-15  -1.45437708E-01
  -1.73471787E-14   2.32791309E-15  -8.19341662E-02
  -1.23004582E-14   6.21519600E-16  -3.65372707E-02
  -1.97796844E-14   2.62651871E-15   7.59415623E-14
  -1.67124223E-14   9.15113621E-16   9.01130781E-14
  -1.73737788E-14   9.17962955E-16   9.16630355E-14
  -1.73103843E-14   8.66340867E-16   8.91791788E-14
  -1.81966710E-14   1.33010657E-15   7.88977229E-14
  -1.75008095E-14   1.58403026E-15  -2.39846003E-01
  -1.77403047E-14   1.78975976E-15  -2.39846003E-01
  -1.83384344E-14   1.87861545E-15  -2.39846003E-01
  -1.89804921E-14   2.17936484E-15  -2.39846003E-01
  -1.92375625E-14   2.50417004E-15  -2.39846003E-01
  -2.07392288E-14   1.29154115E-15   7.53089508E-12
  -1.89142201E-14   4.77741882E-16  -1.04702999E-11
  -2.02400652E-14   2.79052442E-15  -2.93370423E-01
  -2.01275054E-14   2.46835343E-15  -3.26844544E-01
  -2.10191581E-14   2.39382318E-15  -2.45261683E-01
  -2.07809353E-14   2.21339497E-15  -1.60129188E-01
  -2.09287363E-14   1.99009373E-15  -7.93552087E-02
  -1.77809226E-14   8.60001779E-16   1.01015577E-13
  -1.84963379E-14   9.94093251E-16   1.00116475E-13
  -1.88718755E-14   9.77904687E-16   1.00441414E-13
  -1.96358624E-14   1.14456259E-15   1.00850584E-13
  -2.02522052E-14   1.54771960E-15   1.00416004E-13
  -1.75854475E-14   1.22947615E-15  -3.38210582E-01
  -1.84229348E-14   1.41582135E-15  -3.38210582E-01
  -1.90268762E-14   1.74619076E-15  -3.38210582E-01
  -1.94114203E-14   1.97368715E-15  -3.38210582E-01
  -2.01682914E-14   2.18542593E-15  -3.38210582E-01
  -2.01082122E-14   2.60328740E-15   1.06712710E-11
  -2.22923020E-14   2.02791453E-15  -7.33214818E-12
  -2.14044219E-14   2.56307817E-15  -3.26844545E-01
  -2.12628991E-14   2.63625163E-15  -2.93370423E-01
  -2.06088270E-14   1.61290972E-15  -1.45437708E-01
  -1.76623182E-14   1.06796055E-15  -8.19341662E-02
  -1.11682685E-14   4.60938070E-16  -3.65372707E-02
  -1.78005629E-14   1.71750126E-15   8.29153389E-14
  -1.92729400E-14   1.14360333E-15   9.26196917E-14
  -2.06657583E-14   1.20485408E-15   9.52957096E-14
  -2.09059976E-14   1.30581858E-15   9.11839329E-14
  -1.99664043E-14   2.56800555E-15   7.92463843E-14
  -1.83401372E-14   1.48184936E-15  -2.39846003E-01
  -1.90022316E-14   1.62810083E-15  -2.39846003E-01
  -1.95727647E-14   1.88844393E-15  -2.39846003E-01
  -2.01367961E-14   2.27332547E-15  -2.39846003E-01
  -2.06323870E-14   2.50017401E-15  -2.39846003E-01
  -1.88035912E-14   3.46234747E-15  -8.89826544E-02
  -7.72689415E-15   2.81721442E-15  -8.10009040E-02
  -2.15740938E-14   2.81689641E-15  -1.69848848E-01
  -2.19987486E-14   3.17214695E-15  -8.80299716E-02
  -2.30818570E-14   3.38167241E-15  -4.74432436E-12
  -2.67381682E-14   3.25884708E-15  -4.86748956E-12
  -3.43726128E-14   3.41832253E-15  -3.12357058E-12
  -2.00104835E-14   2.05612111E-15   9.89980730E-14
  -1.90802651E-14   2.32644722E-15   9.93339254E-14
  -2.00156004E-14   2.60544270E-15   9.91903636E-14
  -2.14872684E-14   2.90537800E-15   9.98602712E-14
  -1.65151058E-14   3.00038332E-15   9.98262985E-14
  -1.84050582E-14   2.03294290E-15  -5.44916090E-13
  -1.91771662E-14   2.27130008E-15  -5.44897001E-13
  -1.98181721E-14   2.57016851E-15  -5.44815877E-13
  -2.03080570E-14   2.83896564E-15  -5.44773892E-13
  -2.10069351E-14   3.04071802E-15  -5.44744575E-13
  -1.80086026E-14   1.04525125E-14   8.10009040E-02
  -1.88051881E-14   1.71300907E-15   8.89826544E-02
  -2.19581199E-14   3.59358670E-15   8.80299710E-02
  -2.07513623E-14   3.71653362E-15   1.69848848E-01
  -2.08577222E-14   5.51380862E-15   1.45437708E-01
  -1.95763330E-14   6.13136527E-15   8.19341662E-02
  -1.67150516E-14   5.53015355E-15   3.65372707E-02
  -1.88697168E-14   2.80971737E-15   7.34201785E-14
  -1.91940987E-14   3.47841658E-15   8.75348096E-14
  -2.05675801E-14   4.08252305E-15   9.08871932E-14
  -2.10924637E-14   4.52548567E-15   8.99720607E-14
  -2.18811128E-14   5.82172527E-15   7.62060553E-14
  -1.82971088E-14   2.54715754E-15   2.39846003E-01
  -1.89050424E-14   2.86506051E-15   2.39846003E-01
  -1.95455813E-14   3.18533807E-15   2.39846003E-01
  -2.01212667E-14   3.45958875E-15   2.39846003E-01
  -2.06442117E-14   3.63050280E-15   2.39846003E-01
  -2.05675132E-14   5.49055338E-15  -7.33503347E-12
  -2.18855343E-14   5.37573282E-15   1.06681037E-11
  -2.12173603E-14   4.06776312E-15   2.93370423E-01
  -2.14100859E-14   4.22370462E-15   3.26844544E-01
  -2.11964560E-14   4.53649958E-15   2.45261683E-01
  -2.01597558E-14   4.76042970E-15   1.60129188E-01
  -2.04431215E-14   5.00045671E-15   7.93552087E-02
  -1.77890388E-14   2.91415388E-15   9.66077057E-14
  -1.83899585E-14   3.35786104E-15   9.71980530E-14
  -1.88607420E-14   3.86946011E-15   9.61216084E-14
  -1.95782621E-14   4.34982086E-15   9.65223206E-14
  -2.01671910E-14   4.74469943E-15   9.73124004E-14
  -1.77741340E-14   2.77519280E-15   3.38210582E-01
  -1.84209608E-14   3.04215104E-15   3.38210582E-01
  -1.89217395E-14   3.22588549E-15   3.38210582E-01
  -1.94830923E-14   3.54669909E-15   3.38210582E-01
  -2.02308681E-14   3.90483291E-15   3.38210582E-01
  -1.91173929E-14   5.28144563E-15  -1.04725661E-11
  -2.06397069E-14   5.18603948E-15   7.52620528E-12
  -2.08520498E-14   4.34432366E-15   3.26844545E-01
  -2.08149784E-14   4.39922237E-15   2.93370423E-01
  -2.05901581E-14   3.71852532E-15   1.11252358E-01
  -2.02586948E-14   3.40866813E-15   5.72249316E-02
  -1.74645593E-14   2.41167017E-15   1.61803565E-01
  -1.79838297E-14   2.64040339E-15   1.61803565E-01
  -1.85896699E-14   2.91449542E-15   1.61803565E-01
  -1.91465294E-14   3.16019268E-15   1.61803565E-01
  -1.96731118E-14   3.44392124E-15   1.61803565E-01
  -1.71048250E-14   1.99331923E-15   1.78342852E-13
  -1.76373838E-14   2.27747312E-15   1.78296063E-13
  -1.82382685E-14   2.55532316E-15   1.78224327E-13
  -1.88199845E-14   2.79363675E-15   1.78161885E-13
  -1.94359173E-14   3.10304404E-15   1.78210486E-13
  -2.10786104E-14   4.11271804E-15   2.51421391E-01
  -2.04622809E-14   3.99427628E-15   2.08604697E-01
  -1.79456583E-14   2.64631806E-15   2.90034655E-01
  -1.83860835E-14   2.94548088E-15   2.90034655E-01
  -1.89535774E-14   3.14146729E-15   2.90034655E-01
  -1.94872880E-14   3.40656952E-15   2.90034655E-01
  -2.00363082E-14   3.79736387E-15   2.90034655E-01
  -2.11066667E-14   3.56685219E-15   2.08604696E-01
  -2.08756561E-14   4.00441652E-15   2.51421390E-01
  -1.80897946E-14   2.36078325E-15   1.61803565E-01
  -1.87526513E-14   2.68970330E-15   1.61803565E-01
  -1.93797019E-14   2.91022459E-15   1.61803565E-01
  -1.99045318E-14   3.23793016E-15   1.61803565E-01
  -2.04531052E-14   3.49213612E-15   1.61803565E-01
  -2.12544627E-14   3.48682851E-15   5.72249311E-02
  -2.10787770E-14   3.67686215E-15   1.11252358E-01
  -1.85099228E-14   1.98355069E-15   2.08936410E-14
  -1.90187305E-14   2.27990668E-15   2.08795203E-14
  -1.97043218E-14   2.55418058E-15   2.09561297E-14
  -2.02427826E-14   2.82947023E-15   2.10489427E-14
  -2.06740225E-14   3.07949362E-15   2.10513067E-14
  -2.10662689E-14   3.15784684E-15  -1.11252358E-01
  -2.11141769E-14   3.26049153E-15  -5.72249316E-02
  -1.79825521E-14   1.61925920E-15  -1.61803565E-01
  -1.88360374E-14   1.89928543E-15  -1.61803565E-01
  -1.93582908E-14   2.13528253E-15  -1.61803565E-01
  -1.99074418E-14   2.43173910E-15  -1.61803565E-01
  -2.06215951E-14   2.69113208E-15  -1.61803565E-01
  -2.08551486E-14   2.71406835E-15  -2.51421391E-01
  -2.11712029E-14   2.85946283E-15  -2.08604697E-01
  -1.77343340E-14   1.37610532E-15  -2.90034655E-01
  -1.83915361E-14   1.52486836E-15  -2.90034655E-01
  -1.90651761E-14   1.83339921E-15  -2.90034655E-01
  -1.94225198E-14   2.12929546E-15  -2.90034655E-01
  -2.00444601E-14   2.28334899E-15  -2.90034655E-01
  -2.02491436E-14   2.80779927E-15  -2.08604696E-01
  -2.07838004E-14   2.76001464E-15  -2.51421390E-01
  -1.73415006E-14   1.64647714E-15  -1.61803565E-01
  -1.80037838E-14   1.90001846E-15  -1.61803565E-01
  -1.85854342E-14   2.08907328E-15  -1.61803565E-01
  -1.90533067E-14   2.40729809E-15  -1.61803565E-01
  -1.98059662E-14   2.76865303E-15  -1.61803565E-01
  -2.05520641E-14   3.22502832E-15  -5.72249311E-02
  -1.98292684E-14   3.14682900E-15  -1.11252358E-01
  -2.05924973E-14   3.51901096E-15   5.39051183E-02
  -2.04956602E-14   3.66974594E-15   1.07832163E-01
  -2.07455519E-14   3.70405646E-15   1.07832163E-01
  -2.06047651E-14   3.59532310E-15   5.39051183E-02
  -1.77113892E-14   2.01589004E-15   9.95493809E-14
  -1.83822873E-14   2.24884720E-15   9.95473897E-14
  -1.89706069E-14   2.53094673E-15   9.95792969E-14
  -1.95426397E-14   2.80194756E-15   9.96273130E-14
  -2.01215273E-14   3.08080603E-15   9.96561814E-14
  -2.07704262E-14   3.04388659E-15  -1.07832163E-01
  -2.04700561E-14   3.32963823E-15  -5.39051183E-02
  -2.07292943E-14   3.14227196E-15  -1.07832163E-01
  -2.02340331E-14   3.29930938E-15  -5.39051183E-02
  -1.59464292E-14   4.22022765E-15   8.43895996E-02
  -1.59182866E-14   3.69806109E-15   8.38862669E-02
  -1.55603448E-14   2.72986287E-15   8.57164466E-02
  -1.49601069E-14   3.79358750E-16   9.45586190E-02
  -1.54966102E-14   1.51983081E-15   1.13786794E-01
  -1.50352845E-14   2.18065222E-15   1.39670610E-01
  -2.11765480E-14   1.00962423E-15  -9.45586190E-02
  -1.80834457E-14   8.34039162E-16  -1.13786794E-01
  -1.61659217E-14   1.03970152E-15  -1.39670609E-01
  -1.68868310E-14   6.48127339E-16  -8.43895995E-02
  -1.70901558E-14   7.76390745E-16  -8.38862668E-02
  -1.62555965E-14   1.19729477E-15  -8.57164462E-02
  -1.75620846E-14   1.07159409E-15  -6.67046017E-02
  -1.72704812E-14   1.00759102E-15  -1.41762861E-01
  -1.68984020E-14   1.29157162E-15  -2.27224866E-01
  -1.85201913E-14   2.05887189E-15  -4.56892858E-02
  -1.73437021E-14   1.73766276E-15  -1.06817498E-01
  -1.75066164E-14   1.33882433E-15  -1.86978919E-01
  -1.79900520E-14  -5.48974920E-16  -4.56892858E-02
  -1.73763047E-14  -7.77553647E-17  -1.06817498E-01
  -1.74375681E-14   3.80790789E-16  -1.86978919E-01
  -1.75614807E-14   5.49832039E-16  -6.67046017E-02
  -1.77627384E-14   5.85290972E-16  -1.41762861E-01
  -1.83409548E-14   7.41046969E-16  -2.27224866E-01
  -1.56167042E-14   2.32371853E-15  -8.43895996E-02
  -1.48303834E-14   2.34221422E-15  -8.38862669E-02
  -1.71381844E-14   2.01551140E-15  -8.57164466E-02
  -1.26038448E-14   3.15885746E-16  -9.45586190E-02
  -1.52104407E-14   7.43325286E-16  -1.13786794E-01
  -1.60943403E-14   1.17537459E-15  -1.39670610E-01
  -1.65265777E-14   1.35423775E-15   9.45586190E-02
  -1.72402600E-14   2.13977849E-15   1.13786794E-01
  -1.56505205E-14   2.17241930E-15   1.39670609E-01
  -1.58075755E-14   2.92876834E-15   8.43895995E-02
  -1.68680495E-14   2.29180125E-15   8.38862668E-02
  -1.73793210E-14   2.08842649E-15   8.57164462E-02
  -1.80236157E-14   2.50953000E-15   6.67046017E-02
  -1.71643327E-14   2.55425057E-15   1.41762861E-01
  -1.72367877E-14   2.56802452E-15   2.27224866E-01
  -1.79729109E-14   2.61693936E-15   4.56892858E-02
  -1.72211810E-14   2.49035976E-15   1.06817498E-01
  -1.76346431E-14   2.30041106E-15   1.86978919E-01
  -1.77799389E-14   5.90949568E-16   4.56892858E-02
  -1.71124158E-14   1.10982965E-15   1.06817498E-01
  -1.76708837E-14   1.75180490E-15   1.86978919E-01
  -1.72387381E-14   2.20260358E-15   6.67046017E-02
  -1.69933182E-14   2.18339316E-15   1.41762861E-01