<?xml version="1.0"?>
<VTKFile type="UnstructuredGrid" version="0.1">
  <UnstructuredGrid>
    <Piece NumberOfPoints="1183" NumberOfCells="936">
      <Points>
        <DataArray type="Float64" NumberOfComponents="3" format="ascii">
  -5.00000000E-01  -5.00000000E-01   0.00000000E+00
   5.00000000E-01  -5.00000000E-01   0.00000000E+00
   5.00000000E-01   5.00000000E-01   0.00000000E+00
  -5.00000000E-01   5.00000000E-01   0.00000000E+00
   0.00000000E+00   0.00000000E+00   0.00000000E+00
   0.00000000E+00   3.50000000E-01   0.00000000E+00
  -3.50000000E-01   0.00000000E+00   0.00000000E+00
   0.00000000E+00  -3.50000000E-01   0.00000000E+00
   3.50000000E-01   0.00000000E+00   0.00000000E+00
   2.47487373E-01   2.47487373E-01   0.00000000E+00
  -2.47487373E-01   2.47487373E-01   0.00000000E+00
  -2.47487373E-01  -2.47487373E-01   0.00000000E+00
   2.47487373E-01  -2.47487373E-01   0.00000000E+00
   0.00000000E+00   3.00000000E-01   0.00000000E+00
  -3.00000000E-01   0.00000000E+00   0.00000000E+00
   0.00000000E+00  -3.00000000E-01   0.00000000E+00
   3.00000000E-01   0.00000000E+00   0.00000000E+00
  -1.67083203E-01   1.67083203E-01   0.00000000E+00
  -1.67083203E-01  -1.67083203E-01   0.00000000E+00
   1.67083203E-01  -1.67083203E-01   0.00000000E+00
   1.67083203E-01   1.67083203E-01   0.00000000E+00
   0.00000000E+00  -5.00000000E-01   0.00000000E+00
   5.00000000E-01   0.00000000E+00   0.00000000E+00
   0.00000000E+00   5.00000000E-01   0.00000000E+00
  -5.00000000E-01   0.00000000E+00   0.00000000E+00
   0.00000000E+00   5.00000000E-01   1.00000000E+00
  -5.00000000E-01   5.00000000E-01   1.00000000E+00
  -2.47487373E-01   2.47487373E-01   1.00000000E+00
   0.00000000E+00   0.00000000E+00   1.00000000E+00
   0.00000000E+00   3.50000000E-01   1.00000000E+00
   5.00000000E-01   5.00000000E-01   1.00000000E+00
   2.47487373E-01   2.47487373E-01   1.00000000E+00
   5.00000000E-01   0.00000000E+00   1.00000000E+00
   3.50000000E-01   0.00000000E+00   1.00000000E+00
   5.00000000E-01  -5.00000000E-01   1.00000000E+00
   2.47487373E-01  -2.47487373E-01   1.00000000E+00
   0.00000000E+00  -5.00000000E-01   1.00000000E+00
   0.00000000E+00  -3.50000000E-01   1.00000000E+00
  -5.00000000E-01  -5.00000000E-01   1.00000000E+00
  -2.47487373E-01  -2.47487373E-01   1.00000000E+00
  -5.00000000E-01   0.00000000E+00   1.00000000E+00
  -3.50000000E-01   0.00000000E+00   1.00000000E+00
  -1.67083203E-01   1.67083203E-01   1.00000000E+00
   0.00000000E+00   3.00000000E-01   1.00000000E+00
  -3.00000000E-01   0.00000000E+00   1.00000000E+00
  -1.67083203E-01  -1.67083203E-01   1.00000000E+00
   0.00000000E+00  -3.00000000E-01   1.00000000E+00
   1.67083203E-01  -1.67083203E-01   1.00000000E+00
   3.00000000E-01   0.00000000E+00   1.00000000E+00
   1.67083203E-01   1.67083203E-01   1.00000000E+00
  -3.33333333E-01  -5.00000000E-01   0.00000000E+00
  -1.66666667E-01  -5.00000000E-01   0.00000000E+00
   1.66666667E-01  -5.00000000E-01   0.00000000E+00
   3.33333333E-01  -5.00000000E-01   0.00000000E+00
   5.00000000E-01  -3.33333333E-01   0.00000000E+00
   5.00000000E-01  -1.66666667E-01   0.00000000E+00
   5.00000000E-01   1.66666667E-01   0.00000000E+00
   5.00000000E-01   3.33333333E-01   0.00000000E+00
   3.33333333E-01   5.00000000E-01   0.00000000E+00
   1.66666667E-01   5.00000000E-01   0.00000000E+00
  -1.66666667E-01   5.00000000E-01   0.00000000E+00
  -3.33333333E-01   5.00000000E-01   0.00000000E+00
  -5.00000000E-01   3.33333333E-01   0.00000000E+00
  -5.00000000E-01   1.66666667E-01   0.00000000E+00
  -5.00000000E-01  -1.66666667E-01   0.00000000E+00
  -5.00000000E-01  -3.33333333E-01   0.00000000E+00
  -9.05866661E-02   3.38074039E-01   0.00000000E+00
  -1.75000000E-01   3.03108891E-01   0.00000000E+00
  -3.03108891E-01   1.75000000E-01   0.00000000E+00
  -3.38074039E-01   9.05866654E-02   0.00000000E+00
  -3.38074039E-01  -9.05866661E-02   0.00000000E+00
  -3.03108891E-01  -1.75000000E-01   0.00000000E+00
  -1.75000000E-01  -3.03108891E-01   0.00000000E+00
  -9.05866654E-02  -3.38074039E-01   0.00000000E+00
   9.05866661E-02  -3.38074039E-01   0.00000000E+00
   1.75000000E-01  -3.03108891E-01   0.00000000E+00
   3.03108891E-01  -1.75000000E-01   0.00000000E+00
   3.38074039E-01  -9.05866654E-02   0.00000000E+00
   3.38074039E-01   9.05866661E-02   0.00000000E+00
   3.03108891E-01   1.75000000E-01   0.00000000E+00
   1.75000000E-01   3.03108891E-01   0.00000000E+00
   9.05866654E-02   3.38074039E-01   0.00000000E+00
  -4.36871843E-01   4.36871843E-01   0.00000000E+00
  -3.73743687E-01   3.73743687E-01   0.00000000E+00
  -3.10615530E-01   3.10615530E-01   0.00000000E+00
  -4.36871843E-01  -4.36871843E-01   0.00000000E+00
  -3.73743687E-01  -3.73743687E-01   0.00000000E+00
  -3.10615530E-01  -3.10615530E-01   0.00000000E+00
   4.36871843E-01  -4.36871843E-01   0.00000000E+00
   3.73743687E-01  -3.73743687E-01   0.00000000E+00
   3.10615530E-01  -3.10615530E-01   0.00000000E+00
   4.36871843E-01   4.36871843E-01   0.00000000E+00
   3.73743687E-01   3.73743687E-01   0.00000000E+00
   3.10615530E-01   3.10615530E-01   0.00000000E+00
   0.00000000E+00   4.62500000E-01   0.00000000E+00
   0.00000000E+00   4.25000000E-01   0.00000000E+00
   0.00000000E+00   3.87500000E-01   0.00000000E+00
  -4.62500000E-01   0.00000000E+00   0.00000000E+00
  -4.25000000E-01   0.00000000E+00   0.00000000E+00
  -3.87500000E-01   0.00000000E+00   0.00000000E+00
   0.00000000E+00  -4.62500000E-01   0.00000000E+00
   0.00000000E+00  -4.25000000E-01   0.00000000E+00
   0.00000000E+00  -3.87500000E-01   0.00000000E+00
   4.62500000E-01   0.00000000E+00   0.00000000E+00
   4.25000000E-01   0.00000000E+00   0.00000000E+00
   3.87500000E-01   0.00000000E+00   0.00000000E+00
  -5.89939545E-02   2.59951156E-01   0.00000000E+00
  -1.14794611E-01   2.15561029E-01   0.00000000E+00
  -2.15561030E-01   1.14794610E-01   0.00000000E+00
  -2.59951156E-01   5.89939540E-02   0.00000000E+00
  -2.59951156E-01  -5.89939545E-02   0.00000000E+00
  -2.15561029E-01  -1.14794611E-01   0.00000000E+00
  -1.14794610E-01  -2.15561030E-01   0.00000000E+00
  -5.89939540E-02  -2.59951156E-01   0.00000000E+00
   5.89939545E-02  -2.59951156E-01   0.00000000E+00
   1.14794611E-01  -2.15561029E-01   0.00000000E+00
   2.15561030E-01  -1.14794610E-01   0.00000000E+00
   2.59951156E-01  -5.89939540E-02   0.00000000E+00
   2.59951156E-01   5.89939545E-02   0.00000000E+00
   2.15561029E-01   1.14794611E-01   0.00000000E+00
   1.14794610E-01   2.15561030E-01   0.00000000E+00
   5.89939540E-02   2.59951156E-01   0.00000000E+00
  -5.56944011E-02   5.56944011E-02   0.00000000E+00
  -1.11388802E-01   1.11388802E-01   0.00000000E+00
  -5.56944011E-02  -5.56944011E-02   0.00000000E+00
  -1.11388802E-01  -1.11388802E-01   0.00000000E+00
   5.56944011E-02  -5.56944011E-02   0.00000000E+00
   1.11388802E-01  -1.11388802E-01   0.00000000E+00
   5.56944011E-02   5.56944011E-02   0.00000000E+00
   1.11388802E-01   1.11388802E-01   0.00000000E+00
  -1.66666667E-01   5.00000000E-01   1.00000000E+00
  -3.33333333E-01   5.00000000E-01   1.00000000E+00
  -4.36871843E-01   4.36871843E-01   1.00000000E+00
  -3.73743687E-01   3.73743687E-01   1.00000000E+00
  -3.10615530E-01   3.10615530E-01   1.00000000E+00
  -1.75000000E-01   3.03108891E-01   1.00000000E+00
  -9.05866661E-02   3.38074039E-01   1.00000000E+00
   0.00000000E+00   3.87500000E-01   1.00000000E+00
   0.00000000E+00   4.25000000E-01   1.00000000E+00
   0.00000000E+00   4.62500000E-01   1.00000000E+00
   0.00000000E+00   5.00000000E-01   1.66666667E-01
   0.00000000E+00   5.00000000E-01   3.33333333E-01
   0.00000000E+00   5.00000000E-01   5.00000000E-01
   0.00000000E+00   5.00000000E-01   6.66666667E-01
   0.00000000E+00   5.00000000E-01   8.33333333E-01
  -5.00000000E-01   5.00000000E-01   1.66666667E-01
  -5.00000000E-01   5.00000000E-01   3.33333333E-01
  -5.00000000E-01   5.00000000E-01   5.00000000E-01
  -5.00000000E-01   5.00000000E-01   6.66666667E-01
  -5.00000000E-01   5.00000000E-01   8.33333333E-01
  -2.47487373E-01   2.47487373E-01   1.66666667E-01
  -2.47487373E-01   2.47487373E-01   3.33333333E-01
  -2.47487373E-01   2.47487373E-01   5.00000000E-01
  -2.47487373E-01   2.47487373E-01   6.66666667E-01
  -2.47487373E-01   2.47487373E-01   8.33333333E-01
   0.00000000E+00   3.50000000E-01   1.66666667E-01
   0.00000000E+00   3.50000000E-01   3.33333333E-01
   0.00000000E+00   3.50000000E-01   5.00000000E-01
   0.00000000E+00   3.50000000E-01   6.66666667E-01
   0.00000000E+00   3.50000000E-01   8.33333333E-01
   3.33333333E-01   5.00000000E-01   1.00000000E+00
   1.66666667E-01   5.00000000E-01   1.00000000E+00
   9.05866654E-02   3.38074039E-01   1.00000000E+00
   1.75000000E-01   3.03108891E-01   1.00000000E+00
   3.10615530E-01   3.10615530E-01   1.00000000E+00
   3.73743687E-01   3.73743687E-01   1.00000000E+00
   4.36871843E-01   4.36871843E-01   1.00000000E+00
   5.00000000E-01   5.00000000E-01   1.66666667E-01
   5.00000000E-01   5.00000000E-01   3.33333333E-01
   5.00000000E-01   5.00000000E-01   5.00000000E-01
   5.00000000E-01   5.00000000E-01   6.66666667E-01
   5.00000000E-01   5.00000000E-01   8.33333333E-01
   2.47487373E-01   2.47487373E-01   1.66666667E-01
   2.47487373E-01   2.47487373E-01   3.33333333E-01
   2.47487373E-01   2.47487373E-01   5.00000000E-01
   2.47487373E-01   2.47487373E-01   6.66666667E-01
   2.47487373E-01   2.47487373E-01   8.33333333E-01
   5.00000000E-01   1.66666667E-01   1.00000000E+00
   5.00000000E-01   3.33333333E-01   1.00000000E+00
   3.03108891E-01   1.75000000E-01   1.00000000E+00
   3.38074039E-01   9.05866661E-02   1.00000000E+00
   3.87500000E-01   0.00000000E+00   1.00000000E+00
   4.25000000E-01   0.00000000E+00   1.00000000E+00
   4.62500000E-01   0.00000000E+00   1.00000000E+00
   5.00000000E-01   0.00000000E+00   1.66666667E-01
   5.00000000E-01   0.00000000E+00   3.33333333E-01
   5.00000000E-01   0.00000000E+00   5.00000000E-01
[...]
      <PointData Vectors="Displacement">
        <DataArray type="Float64" Name="Displacement" NumberOfComponents="3" format="ascii">
  -2.50337525E-15  -2.62294243E-15   4.52871474E-15
  -2.26565322E-15   4.16240861E-16   6.13358207E-17
   1.85095930E-15  -7.07145169E-16   4.36990958E-15
   1.17208458E-15  -2.41058027E-15   3.53995159E-16
   9.85145745E-15   2.67796393E-14   3.30530740E-14
   1.15360606E-14   2.72350610E-14  -3.38210582E-01
   9.84335057E-15   2.85646848E-14   6.77785024E-13
   8.29325551E-15   2.69960803E-14   3.38210582E-01
   9.80205707E-15   2.44297463E-14  -6.11716129E-13
   1.09551056E-14   2.52410900E-14  -2.39846003E-01
   1.11562179E-14   2.80704619E-14  -2.39846003E-01
   8.88499330E-15   2.81182018E-14   2.39846003E-01
   8.58168541E-15   2.53898192E-14   2.39846003E-01
   1.12259016E-14   2.64609256E-14  -2.90034655E-01
   9.87470915E-15   2.82633857E-14   1.11933820E-13
   8.51519674E-15   2.66290144E-14   2.90034655E-01
   9.82012680E-15   2.59069852E-14  -4.57954561E-14
   1.06712651E-14   2.74145774E-14  -1.61803565E-01
   9.04097982E-15   2.75014774E-14   1.61803565E-01
   8.97858634E-15   2.60135702E-14   1.61803565E-01
   1.06351576E-14   2.57227896E-14  -1.61803565E-01
   8.31741708E-15   3.10356000E-14   3.91442315E-14
   9.90387079E-15   2.40699777E-14   3.34507864E-14
   1.16816805E-14   3.07959690E-14   2.86294721E-14
   9.86994837E-15   2.69372696E-14   3.28018437E-14
   1.12242673E-14   3.03869401E-14   3.10764038E-14
   1.68449658E-16   4.49335680E-16   1.08244269E-15
   1.02867331E-14   3.09450651E-14  -2.39846003E-01
   9.26098986E-15   2.97238697E-14   3.30273291E-14
   1.10653370E-14   2.92355124E-14  -3.38210582E-01
   5.56969918E-17  -1.60820681E-15   1.14718988E-15
   1.05117273E-14   2.82747718E-14  -2.39846003E-01
   9.39196598E-15   2.70421520E-14   3.35640677E-14
   9.37432896E-15   2.84046677E-14  -6.11542181E-13
  -2.54181489E-15  -2.32815386E-15   2.52546886E-15
   8.14710522E-15   2.83781217E-14   2.39846003E-01
   7.56701354E-15   1.43854638E-14   2.74610523E-14
   7.52929495E-15   2.89944941E-14   3.38210582E-01
  -3.19602276E-15   1.76027941E-15   3.86762759E-15
   8.15246700E-15   3.05066295E-14   2.39846003E-01
   9.21615598E-15   3.09525327E-14   3.30113445E-14
   9.40316936E-15   3.12992998E-14   6.77797185E-13
   1.00345646E-14   3.09827072E-14  -1.61803565E-01
   1.07870805E-14   3.00344961E-14  -2.90034655E-01
   9.37448500E-15   3.12178305E-14   1.11941431E-13
   8.70730199E-15   3.05463424E-14   1.61803565E-01
   7.82791354E-15   2.92557183E-14   2.90034655E-01
   8.50291871E-15   2.85414421E-14   1.61803565E-01
   9.36168966E-15   2.73278013E-14  -4.57303344E-14
   9.95285992E-15   2.86748743E-14  -1.61803565E-01
   6.26321785E-15   2.68326268E-14  -1.05268689E-11
   6.92008895E-15   2.76478761E-14   7.46495147E-12
   7.99671066E-15   1.75339992E-14  -7.38451684E-12
   1.38918853E-15   3.69785976E-14   1.05683222E-11
   7.93814085E-15   2.28272819E-14   8.10009040E-02
   9.79183155E-15   2.44665063E-14   8.89826544E-02
   1.04257950E-14   2.40136036E-14  -8.89826544E-02
   1.20464233E-14   2.04727084E-14  -8.10009040E-02
   1.48096310E-14   3.71556454E-14   1.06378825E-11
   1.05373181E-14   1.82778206E-14  -7.40749456E-12
   1.05226379E-14   2.82032806E-14   7.46559389E-12
   9.81199185E-15   2.67620328E-14  -1.05476515E-11
   1.09912349E-14   2.30174871E-14  -8.10009040E-02
   1.05635442E-14   2.65925546E-14  -8.89826544E-02
   9.43474982E-15   2.69191557E-14   8.89826544E-02
   8.61394152E-15   2.28124646E-14   8.10009040E-02
   1.12990517E-14   2.70102196E-14  -3.26844544E-01
   1.13169696E-14   2.76944971E-14  -2.93370423E-01
   1.06983901E-14   2.80019647E-14  -1.69848848E-01
   1.03241411E-14   2.82969195E-14  -8.80299710E-02
   9.44147620E-15   2.83709727E-14   8.80299716E-02
   9.11293494E-15   2.78932170E-14   1.69848848E-01
   8.45047333E-15   2.71079127E-14   2.93370423E-01
   8.45047380E-15   2.72362926E-14   3.26844545E-01
   8.24505647E-15   2.61812810E-14   3.26844544E-01
   8.25726626E-15   2.60496025E-14   2.93370423E-01
   9.17241005E-15   2.52445962E-14   1.69848848E-01
   9.41393351E-15   2.53631858E-14   8.80299710E-02
   1.02696886E-14   2.45069327E-14  -8.80299716E-02
   1.05979386E-14   2.50077140E-14  -1.69848848E-01
   1.13022894E-14   2.55262929E-14  -2.93370423E-01
   1.14246509E-14   2.61618445E-14  -3.26844545E-01
   9.62575227E-15   1.67553133E-14  -3.65372707E-02
   1.18174809E-14   2.38430596E-14  -8.19341662E-02
   1.16294660E-14   2.65814705E-14  -1.45437708E-01
   1.50173950E-15   1.52558410E-14   3.65372707E-02
   4.85427653E-15   2.26941771E-14   8.19341662E-02
   6.84568217E-15   2.62007410E-14   1.45437708E-01
   5.51053022E-15   1.96757499E-14   3.65372707E-02
   7.21821100E-15   2.51472994E-14   8.19341662E-02
   7.90652737E-15   2.62494392E-14   1.45437708E-01
   6.70860399E-15   1.71032349E-14  -3.65372707E-02
   9.68329177E-15   2.39293432E-14  -8.19341662E-02
   1.10861738E-14   2.52336582E-14  -1.45437708E-01
   1.11165567E-14   2.90745978E-14  -7.93552087E-02
   1.12420207E-14   2.84959631E-14  -1.60129188E-01
   1.13095832E-14   2.75363865E-14  -2.45261683E-01
   9.90760208E-15   2.74381164E-14   3.25738307E-12
   9.89135249E-15   2.76167553E-14   5.00067481E-12
   9.90450983E-15   2.84451126E-14   4.87729601E-12
   8.25849067E-15   2.86244804E-14   7.93552087E-02
   8.31849541E-15   2.78292613E-14   1.60129188E-01
   8.26012348E-15   2.68526024E-14   2.45261683E-01
   9.88359801E-15   2.42196629E-14  -3.19134361E-12
   9.95057492E-15   2.42290821E-14  -4.93467351E-12
   9.89048961E-15   2.44769203E-14  -4.81121214E-12
   1.09799232E-14   2.72072906E-14  -2.51421390E-01
   1.09742979E-14   2.75022201E-14  -2.08604696E-01
   1.03423655E-14   2.79826939E-14  -1.11252358E-01
   1.01051967E-14   2.83227011E-14  -5.72249311E-02
   9.57306912E-15   2.79368822E-14   5.72249316E-02
   9.38781316E-15   2.80605010E-14   1.11252358E-01
   9.01943184E-15   2.71541812E-14   2.08604697E-01
   8.81140886E-15   2.69416380E-14   2.51421391E-01
   8.68718037E-15   2.61885036E-14   2.51421390E-01
   8.75734620E-15   2.59593454E-14   2.08604696E-01
   9.33541876E-15   2.56585944E-14   1.11252358E-01
   9.50963977E-15   2.54214969E-14   5.72249311E-02
   1.00802125E-14   2.57191527E-14  -5.72249316E-02
   1.03791031E-14   2.60244396E-14  -1.11252358E-01
   1.08453845E-14   2.69877150E-14  -2.08604697E-01
   1.11202189E-14   2.64504602E-14  -2.51421391E-01
   1.02005107E-14   2.77053226E-14  -5.39051183E-02
   1.04230577E-14   2.77993451E-14  -1.07832163E-01
   9.58226502E-15   2.73417089E-14   5.39051183E-02
   9.32810422E-15   2.73461578E-14   1.07832163E-01
   9.61542012E-15   2.60423021E-14   5.39051183E-02
   9.27278133E-15   2.65361181E-14   1.07832163E-01
   1.00851173E-14   2.62409314E-14  -5.39051183E-02
   1.02346754E-14   2.66754975E-14  -1.07832163E-01
   1.10799649E-14   3.05113379E-14   7.46134712E-12
   9.45407213E-15   2.52933135E-14  -1.05368043E-11
   8.41166339E-15   1.75047556E-14  -3.65372707E-02
   1.07512877E-14   2.57125730E-14  -8.19341662E-02
   1.09379021E-14   2.93351399E-14  -1.45437708E-01
   1.07032564E-14   3.06034496E-14  -2.93370423E-01
   1.10475225E-14   3.05494803E-14  -3.26844544E-01
   1.11035598E-14   2.94672177E-14  -2.45261683E-01
   1.09825100E-14   2.94302885E-14  -1.60129188E-01
   1.10459985E-14   3.02460884E-14  -7.93552087E-02
   1.17528198E-14   2.67094071E-14   3.06083887E-14
   1.09522411E-14   2.78404221E-14   3.17254587E-14
   1.10892792E-14   2.81692761E-14   3.09917203E-14
   1.10284043E-14   2.87751197E-14   3.15645476E-14
   1.08755179E-14   2.92556739E-14   3.19854938E-14
   1.27296612E-14   2.97442675E-14   2.25667319E-14
   1.15083157E-14   2.93955924E-14   2.78565895E-14
   1.15760928E-14   3.02877814E-14   2.91939012E-14
   1.10597504E-14   2.98769545E-14   2.89967042E-14
   1.11183104E-14   3.03614564E-14   2.54638757E-14
   1.09737923E-14   2.84894924E-14  -2.39846003E-01
   1.08820455E-14   2.88841339E-14  -2.39846003E-01
   1.08239158E-14   2.93522777E-14  -2.39846003E-01
   1.07723457E-14   2.99661889E-14  -2.39846003E-01
   1.06998247E-14   3.05516615E-14  -2.39846003E-01
   1.15002828E-14   2.71206398E-14  -3.38210582E-01
   1.14479525E-14   2.77025488E-14  -3.38210582E-01
   1.13235822E-14   2.82086407E-14  -3.38210582E-01
   1.13313997E-14   2.86225791E-14  -3.38210582E-01
   1.13301834E-14   2.93183874E-14  -3.38210582E-01
   8.02764587E-15   2.71432109E-14   1.06025157E-11
   1.03579998E-14   2.96972681E-14  -7.40163501E-12
   1.08698160E-14   2.89295283E-14  -3.26844545E-01
   1.07359866E-14   2.88851697E-14  -2.93370423E-01
   8.93708298E-15   2.68188460E-14  -1.45437708E-01
   6.87464961E-15   2.29084496E-14  -8.19341662E-02
   3.66914844E-15   1.55845294E-14  -3.65372707E-02
   1.65632299E-14   2.41795657E-14   3.16933977E-14
   1.23662618E-14   2.41969864E-14   3.16570685E-14
   1.20329398E-14   2.63348593E-14   3.18717843E-14
   1.14664118E-14   2.63117770E-14   2.89353819E-14
   1.11943664E-14   2.76601450E-14   2.56929613E-14
   1.09169957E-14   2.60904810E-14  -2.39846003E-01
   1.08481182E-14   2.65175457E-14  -2.39846003E-01
   1.08637610E-14   2.69311701E-14  -2.39846003E-01
   1.07971477E-14   2.75092440E-14  -2.39846003E-01
   1.05945064E-14   2.78579285E-14  -2.39846003E-01
   1.01409489E-14   2.61265706E-14  -8.89826544E-02
   1.02064560E-14   2.26718371E-14  -8.10009040E-02
   1.00486488E-14   2.79690903E-14  -1.69848848E-01
   9.56028381E-15   2.83730296E-14  -8.80299716E-02
   9.33726162E-15   2.76149556E-14  -4.81117713E-12
   9.33175770E-15   2.73589860E-14  -4.93451481E-12
   9.40474213E-15   2.69670745E-14  -3.19119097E-12
   9.82311960E-15   2.47504438E-14   3.32012846E-14
   9.73865486E-15   2.49689114E-14   3.30863608E-14
   9.63062864E-15   2.56755823E-14   3.28439247E-14
   9.59575366E-15   2.62832672E-14   3.32373751E-14
   9.45715842E-15   2.64270522E-14   3.31339615E-14
   9.80708124E-15   2.57992132E-14  -6.11610055E-13
   9.68860771E-15   2.60421118E-14  -6.11608220E-13
   9.63735181E-15   2.65117992E-14  -6.11565369E-13
   9.56707086E-15   2.69800708E-14  -6.11504304E-13
   9.42994344E-15   2.71602731E-14  -6.11480021E-13
   8.90721245E-15   2.28308826E-14   8.10009040E-02
   9.29428859E-15   2.66934268E-14   8.89826544E-02
   8.90700139E-15   2.74180049E-14   8.80299710E-02
   8.25870594E-15   2.79584989E-14   1.69848848E-01
   9.34772450E-15   2.79224279E-14   1.45437708E-01
   9.71640908E-15   2.54507153E-14   8.19341662E-02
   6.79952803E-15   1.67226292E-14   3.65372707E-02
   3.67517427E-15   2.41290571E-14   2.10378009E-14
   7.10726208E-15   2.45080482E-14   2.86336957E-14
   7.81379502E-15   2.63205081E-14   3.02616875E-14
   7.65402761E-15   2.65173188E-14   3.08065802E-14
   8.14574440E-15   2.76964271E-14   2.63028640E-14
   8.73693569E-15   2.61412981E-14   2.39846003E-01
   8.59385639E-15   2.66148378E-14   2.39846003E-01
   8.43569547E-15   2.70620816E-14   2.39846003E-01
   8.37754715E-15   2.75124516E-14   2.39846003E-01
   8.23358610E-15   2.77922048E-14   2.39846003E-01
   7.31240332E-15   4.24695167E-14  -7.39777773E-12
   7.30408300E-15   2.79310666E-14   1.06030796E-11
   8.07004121E-15   2.85815073E-14   2.93370423E-01
   7.67387156E-15   2.90006787E-14   3.26844544E-01
   6.92591148E-15   2.71549059E-14   2.45261683E-01
   6.63887743E-15   2.36464023E-14   1.60129188E-01
   6.85519290E-15   1.99816799E-14   7.93552087E-02
   7.02513752E-15   2.66732048E-14   3.60682471E-14
   8.03387796E-15   2.80006506E-14   3.39894044E-14
   7.77234426E-15   2.81748582E-14   3.47654212E-14
   7.55074961E-15   2.83970735E-14   3.39654844E-14
   7.74834776E-15   3.17296181E-14   3.24681367E-14
   8.20848919E-15   2.72293598E-14   3.38210582E-01
   8.05503434E-15   2.78341778E-14   3.38210582E-01
   7.91474075E-15   2.82331126E-14   3.38210582E-01
   7.86245733E-15   2.86544506E-14   3.38210582E-01
   7.83592503E-15   2.91815481E-14   3.38210582E-01
   5.72037814E-15   3.36988992E-14  -1.05318890E-11
   6.50368844E-15   3.08239531E-14   7.46357558E-12
   7.49777936E-15   2.94340758E-14   3.26844545E-01
   7.83651803E-15   3.06212179E-14   2.93370423E-01
   7.00548121E-15   2.96282269E-14   1.45437708E-01
   4.19920034E-15   2.69013182E-14   8.19341662E-02
   1.00719185E-15   1.88578045E-14   3.65372707E-02
   6.99357892E-15   2.97845564E-14   2.88247708E-14
   7.51423339E-15   2.93720190E-14   3.22935917E-14
   7.73976051E-15   3.03274329E-14   3.17784554E-14
   7.38792288E-15   2.98238525E-14   3.16724324E-14
   7.86422524E-15   3.12672198E-14   2.73353677E-14
   8.62043920E-15   2.84046112E-14   2.39846003E-01
   8.50051018E-15   2.89966551E-14   2.39846003E-01
   8.41318828E-15   2.94588087E-14   2.39846003E-01
   8.23769771E-15   2.99369618E-14   2.39846003E-01
   8.18110975E-15   3.04719336E-14   2.39846003E-01
   8.35292619E-15   2.96919045E-14   8.89826544E-02
   7.84492752E-15   2.62863223E-14   8.10009040E-02
   8.67126168E-15   3.12770896E-14   1.69848848E-01
   9.04837707E-15   3.12611352E-14   8.80299716E-02
   9.35128045E-15   3.03380290E-14   4.87732129E-12
   9.31365725E-15   3.06028607E-14   5.00071018E-12
   9.23851845E-15   3.03121426E-14   3.25742272E-12
   9.80315094E-15   2.82888723E-14   3.26302292E-14
   9.72583957E-15   2.91854953E-14   3.26063379E-14
   9.64689978E-15   2.97106497E-14   3.25117384E-14
   9.55894015E-15   2.98612526E-14   3.25152082E-14
   9.43447385E-15   2.98433707E-14   3.25085118E-14
   9.79769148E-15   2.89619116E-14   6.77733101E-13
   9.71076637E-15   2.94397127E-14   6.77729461E-13
   9.62888803E-15   2.99277859E-14   6.77787654E-13
   9.51030664E-15   3.04197781E-14   6.77839135E-13
   9.40768325E-15   3.09321023E-14   6.77843674E-13
   9.32458959E-15   2.59460261E-14  -8.10009040E-02
   9.77291509E-15   2.94299959E-14  -8.89826544E-02
   9.67713570E-15   3.15226058E-14  -8.80299710E-02
   9.99912641E-15   3.13708126E-14  -1.69848848E-01
   1.01902503E-14   3.02379997E-14  -2.08604696E-01
   1.05539335E-14   2.99862016E-14  -2.51421390E-01
   1.06257250E-14   2.82057826E-14  -1.61803565E-01
   1.04837529E-14   2.84725088E-14  -1.61803565E-01
   1.04471241E-14   2.89935585E-14  -1.61803565E-01
   1.03630760E-14   2.95773092E-14  -1.61803565E-01
   1.03042181E-14   2.99929150E-14  -1.61803565E-01
   1.12354534E-14   2.73253839E-14  -2.90034655E-01
   1.12122794E-14   2.75884372E-14  -2.90034655E-01
   1.11205768E-14   2.82283847E-14  -2.90034655E-01
   1.10294453E-14   2.87204936E-14  -2.90034655E-01
   1.10539149E-14   2.90948722E-14  -2.90034655E-01
   9.64722906E-15   3.08506809E-14  -5.72249311E-02
   9.84279729E-15   3.09656488E-14  -1.11252358E-01
   9.79286455E-15   2.87577037E-14   1.11854426E-13
   9.70686974E-15   2.91996376E-14   1.11951783E-13
   9.62680031E-15   2.96723988E-14   1.11949624E-13
   9.50097291E-15   3.01752994E-14   1.12018526E-13
   9.41411084E-15   3.06713196E-14   1.11962580E-13
   8.85860816E-15   3.04766002E-14   1.11252358E-01
   9.22969997E-15   3.12523593E-14   5.72249316E-02
   9.07368992E-15   2.81531979E-14   1.61803565E-01
   8.88328446E-15   2.85835091E-14   1.61803565E-01
   8.75894480E-15   2.90225438E-14   1.61803565E-01
   8.70700687E-15   2.95462077E-14   1.61803565E-01
   8.54102620E-15   2.99800878E-14   1.61803565E-01
   7.96478544E-15   2.94253526E-14   2.51421391E-01
   8.28457587E-15   3.03080203E-14   2.08604697E-01
   8.41693212E-15   2.73265872E-14   2.90034655E-01
   8.28108694E-15   2.77888455E-14   2.90034655E-01
   8.15662690E-15   2.82407874E-14   2.90034655E-01
   8.08364088E-15   2.87203190E-14   2.90034655E-01
   8.04699186E-15   2.91622131E-14   2.90034655E-01
   8.23667662E-15   2.89690289E-14   2.08604696E-01
   7.88556188E-15   2.93521569E-14   2.51421390E-01
   9.04089933E-15   2.64416603E-14   1.61803565E-01
   8.95126639E-15   2.69658160E-14   1.61803565E-01
   8.79757053E-15   2.74236378E-14   1.61803565E-01
   8.74014992E-15   2.78936766E-14   1.61803565E-01
   8.61310062E-15   2.82726647E-14   1.61803565E-01
   9.18036962E-15   2.82480481E-14   5.72249311E-02
   8.69890137E-15   2.84327355E-14   1.11252358E-01
   9.80329739E-15   2.57362577E-14  -4.58082289E-14
   9.68888318E-15   2.63483106E-14  -4.57647628E-14
   9.63832639E-15   2.67609125E-14  -4.57073939E-14
   9.57637331E-15   2.71538680E-14  -4.56484380E-14
   9.43015553E-15   2.77233680E-14  -4.56961748E-14
   9.69024343E-15   2.78023706E-14  -1.11252358E-01
   9.45515284E-15   2.77531076E-14  -5.72249316E-02
   1.05281303E-14   2.64914603E-14  -1.61803565E-01
   1.05132976E-14   2.68648689E-14  -1.61803565E-01
   1.04617574E-14   2.73663481E-14  -1.61803565E-01
   1.04655100E-14   2.79011299E-14  -1.61803565E-01
   1.02576218E-14   2.83122725E-14  -1.61803565E-01
   1.05286515E-14   2.91149771E-14  -2.51421391E-01
   1.02216495E-14   2.79039288E-14  -2.08604697E-01
   9.64924074E-15   2.95499510E-14  -5.39051183E-02
   9.89793933E-15   3.01241263E-14  -1.07832163E-01
   8.87019860E-15   3.03157639E-14   1.07832163E-01
   8.99469452E-15   2.97320496E-14   5.39051183E-02
   9.79499765E-15   2.72303279E-14   3.30234944E-14
   9.72748288E-15   2.77104837E-14   3.31053935E-14
   9.61687515E-15   2.81902652E-14   3.31335737E-14
   9.52211343E-15   2.87022911E-14   3.31065933E-14
   9.44053525E-15   2.91899428E-14   3.30312998E-14
   8.76517727E-15   2.85898495E-14   1.07832163E-01
   8.94546331E-15   2.97943053E-14   5.39051183E-02
   9.83808030E-15   2.84832237E-14  -1.07832163E-01
   9.51077607E-15   2.95708399E-14  -5.39051183E-02
   1.16682809E-14   2.79027586E-14  -6.67046017E-02
   1.17739147E-14   2.79885485E-14  -1.41762861E-01
   1.17365279E-14   2.78505864E-14  -2.27224866E-01
   1.11970970E-14   2.75779371E-14  -4.56892858E-02
   1.15977758E-14   2.73964013E-14  -1.06817498E-01
   1.16685715E-14   2.78588544E-14  -1.86978919E-01
   1.34124975E-14   3.14464418E-14  -4.56892858E-02
   1.29031498E-14   2.82243063E-14  -1.06817498E-01
   1.22458733E-14   2.64635502E-14  -1.86978919E-01
   1.16298936E-14   2.15481900E-14  -6.67046017E-02
   1.18597028E-14   2.36043173E-14  -1.41762861E-01
   1.15861349E-14   2.51769208E-14  -2.27224866E-01
   1.05307896E-14   2.42916339E-14  -8.43895996E-02
   1.02479508E-14   2.49198765E-14  -8.38862669E-02
   1.02480947E-14   2.43731626E-14  -8.57164466E-02
   1.12218162E-14   2.21409236E-14  -9.45586190E-02
   1.09672377E-14   2.34787181E-14  -1.13786794E-01
   1.08572780E-14   2.52442343E-14  -1.39670610E-01
   9.09924190E-15   2.35551386E-14   9.45586190E-02
   9.21321470E-15   2.43003616E-14   1.13786794E-01
   9.04625605E-15   2.47164876E-14   1.39670609E-01
   9.69300338E-15   2.48819489E-14   8.43895995E-02
   9.42773374E-15   2.53494192E-14   8.38862668E-02
   9.46455911E-15   2.52203908E-14   8.57164462E-02
   7.27290634E-15   2.12470187E-14   6.67046017E-02
   7.50063774E-15   2.31317686E-14   1.41762861E-01
   7.72631404E-15   2.49102080E-14   2.27224866E-01
   3.50083705E-15   3.13590277E-14   4.56892858E-02
   4.92628414E-15   2.86965092E-14   1.06817498E-01
   6.67296674E-15   2.69038701E-14   1.86978919E-01
   5.44466211E-15   2.84278160E-14   4.56892858E-02
   6.19821886E-15   2.72178027E-14   1.06817498E-01
   7.20273629E-15   2.78602008E-14   1.86978919E-01
   7.01415947E-15   2.70849579E-14   6.67046017E-02
   7.03887028E-15   2.76222361E-14   1.41762861E-01
   7.62342043E-15   2.68738524E-14   2.27224866E-01
   9.38925982E-15   2.69404089E-14   8.43895996E-02
   9.44728271E-15   2.76698434E-14   8.38862669E-02
   9.44285247E-15   2.78121746E-14   8.57164466E-02
   7.99344836E-15   2.36561742E-14   9.45586190E-02
   8.17802441E-15   2.52440821E-14   1.13786794E-01
   8.68780831E-15   2.66157101E-14   1.39670610E-01
   1.17609864E-14   2.41430582E-14  -9.45586190E-02
   1.15035619E-14   2.58482457E-14  -1.13786794E-01
   1.09662573E-14   2.74212473E-14  -1.39670609E-01
   1.03683235E-14   2.70461290E-14  -8.43895995E-02
   1.02432132E-14   2.72870609E-14  -8.38862668E-02