<?xml version="1.0"?>
<VTKFile type="UnstructuredGrid" version="0.1">
  <UnstructuredGrid>
    <Piece NumberOfPoints="1183" NumberOfCells="936">
      <Points>
        <DataArray type="Float64" NumberOfComponents="3" format="ascii">
  -5.00000000E-01  -5.00000000E-01   0.00000000E+00
   5.00000000E-01  -5.00000000E-01   0.00000000E+00
   5.00000000E-01   5.00000000E-01   0.00000000E+00
  -5.00000000E-01   5.00000000E-01   0.00000000E+00
   0.00000000E+00   0.00000000E+00   0.00000000E+00
   0.00000000E+00   3.50000000E-01   0.00000000E+00
  -3.50000000E-01   0.00000000E+00   0.00000000E+00
   0.00000000E+00  -3.50000000E-01   0.00000000E+00
   3.50000000E-01   0.00000000E+00   0.00000000E+00
   2.47487373E-01   2.47487373E-01   0.00000000E+00
  -2.47487373E-01   2.47487373E-01   0.00000000E+00
  -2.47487373E-01  -2.47487373E-01   0.00000000E+00
   2.47487373E-01  -2.47487373E-01   0.00000000E+00
   0.00000000E+00   3.00000000E-01   0.00000000E+00
  -3.00000000E-01   0.00000000E+00   0.00000000E+00
   0.00000000E+00  -3.00000000E-01   0.00000000E+00
   3.00000000E-01   0.00000000E+00   0.00000000E+00
  -1.67083203E-01   1.67083203E-01   0.00000000E+00
  -1.67083203E-01  -1.67083203E-01   0.00000000E+00
   1.67083203E-01  -1.67083203E-01   0.00000000E+00
   1.67083203E-01   1.67083203E-01   0.00000000E+00
   0.00000000E+00  -5.00000000E-01   0.00000000E+00
   5.00000000E-01   0.00000000E+00   0.00000000E+00
   0.00000000E+00   5.00000000E-01   0.00000000E+00
  -5.00000000E-01   0.00000000E+00   0.00000000E+00
   0.00000000E+00   5.00000000E-01   1.00000000E+00
  -5.00000000E-01   5.00000000E-01   1.00000000E+00
  -2.47487373E-01   2.47487373E-01   1.00000000E+00
   0.00000000E+00   0.00000000E+00   1.00000000E+00
   0.00000000E+00   3.50000000E-01   1.00000000E+00
   5.00000000E-01   5.00000000E-01   1.00000000E+00
   2.47487373E-01   2.47487373E-01   1.00000000E+00
   5.00000000E-01   0.00000000E+00   1.00000000E+00
   3.50000000E-01   0.00000000E+00   1.00000000E+00
   5.00000000E-01  -5.00000000E-01   1.00000000E+00
   2.47487373E-01  -2.47487373E-01   1.00000000E+00
   0.00000000E+00  -5.00000000E-01   1.00000000E+00
   0.00000000E+00  -3.50000000E-01   1.00000000E+00
  -5.00000000E-01  -5.00000000E-01   1.00000000E+00
  -2.47487373E-01  -2.47487373E-01   1.00000000E+00
  -5.00000000E-01   0.00000000E+00   1.00000000E+00
  -3.50000000E-01   0.00000000E+00   1.00000000E+00
  -1.67083203E-01   1.67083203E-01   1.00000000E+00
   0.00000000E+00   3.00000000E-01   1.00000000E+00
  -3.00000000E-01   0.00000000E+00   1.00000000E+00
  -1.67083203E-01  -1.67083203E-01   1.00000000E+00
   0.00000000E+00  -3.00000000E-01   1.00000000E+00
   1.67083203E-01  -1.67083203E-01   1.00000000E+00
   3.00000000E-01   0.00000000E+00   1.00000000E+00
   1.67083203E-01   1.67083203E-01   1.00000000E+00
  -3.33333333E-01  -5.00000000E-01   0.00000000E+00
  -1.66666667E-01  -5.00000000E-01   0.00000000E+00
   1.66666667E-01  -5.00000000E-01   0.00000000E+00
   3.33333333E-01  -5.00000000E-01   0.00000000E+00
   5.00000000E-01  -3.33333333E-01   0.00000000E+00
   5.00000000E-01  -1.66666667E-01   0.00000000E+00
   5.00000000E-01   1.66666667E-01   0.00000000E+00
   5.00000000E-01   3.33333333E-01   0.00000000E+00
   3.33333333E-01   5.00000000E-01   0.00000000E+00
   1.66666667E-01   5.00000000E-01   0.00000000E+00
  -1.66666667E-01   5.00000000E-01   0.00000000E+00
  -3.33333333E-01   5.00000000E-01   0.00000000E+00
  -5.00000000E-01   3.33333333E-01   0.00000000E+00
  -5.00000000E-01   1.66666667E-01   0.00000000E+00
  -5.00000000E-01  -1.66666667E-01   0.00000000E+00
  -5.00000000E-01  -3.33333333E-01   0.00000000E+00
  -9.05866661E-02   3.38074039E-01   0.00000000E+00
  -1.75000000E-01   3.03108891E-01   0.00000000E+00
  -3.03108891E-01   1.75000000E-01   0.00000000E+00
  -3.38074039E-01   9.05866654E-02   0.00000000E+00
  -3.38074039E-01  -9.05866661E-02   0.00000000E+00
  -3.03108891E-01  -1.75000000E-01   0.00000000E+00
  -1.75000000E-01  -3.03108891E-01   0.00000000E+00
  -9.05866654E-02  -3.38074039E-01   0.00000000E+00
   9.05866661E-02  -3.38074039E-01   0.00000000E+00
   1.75000000E-01  -3.03108891E-01   0.00000000E+00
   3.03108891E-01  -1.75000000E-01   0.00000000E+00
   3.38074039E-01  -9.05866654E-02   0.00000000E+00
   3.38074039E-01   9.05866661E-02   0.00000000E+00
   3.03108891E-01   1.75000000E-01   0.00000000E+00
   1.75000000E-01   3.03108891E-01   0.00000000E+00
   9.05866654E-02   3.38074039E-01   0.00000000E+00
  -4.36871843E-01   4.36871843E-01   0.00000000E+00
  -3.73743687E-01   3.73743687E-01   0.00000000E+00
  -3.10615530E-01   3.10615530E-01   0.00000000E+00
  -4.36871843E-01  -4.36871843E-01   0.00000000E+00
  -3.73743687E-01  -3.73743687E-01   0.00000000E+00
  -3.10615530E-01  -3.10615530E-01   0.00000000E+00
   4.36871843E-01  -4.36871843E-01   0.00000000E+00
   3.73743687E-01  -3.73743687E-01   0.00000000E+00
   3.10615530E-01  -3.10615530E-01   0.00000000E+00
   4.36871843E-01   4.36871843E-01   0.00000000E+00
   3.73743687E-01   3.73743687E-01   0.00000000E+00
   3.10615530E-01   3.10615530E-01   0.00000000E+00
   0.00000000E+00   4.62500000E-01   0.00000000E+00
   0.00000000E+00   4.25000000E-01   0.00000000E+00
   0.00000000E+00   3.87500000E-01   0.00000000E+00
  -4.62500000E-01   0.00000000E+00   0.00000000E+00
  -4.25000000E-01   0.00000000E+00   0.00000000E+00
  -3.87500000E-01   0.00000000E+00   0.00000000E+00
   0.00000000E+00  -4.62500000E-01   0.00000000E+00
   0.00000000E+00  -4.25000000E-01   0.00000000E+00
   0.00000000E+00  -3.87500000E-01   0.00000000E+00
   4.62500000E-01   0.00000000E+00   0.00000000E+00
   4.25000000E-01   0.00000000E+00   0.00000000E+00
   3.87500000E-01   0.00000000E+00   0.00000000E+00
  -5.89939545E-02   2.59951156E-01   0.00000000E+00
  -1.14794611E-01   2.15561029E-01   0.00000000E+00
  -2.15561030E-01   1.14794610E-01   0.00000000E+00
  -2.59951156E-01   5.89939540E-02   0.00000000E+00
  -2.59951156E-01  -5.89939545E-02   0.00000000E+00
  -2.15561029E-01  -1.14794611E-01   0.00000000E+00
  -1.14794610E-01  -2.15561030E-01   0.00000000E+00
  -5.89939540E-02  -2.59951156E-01   0.00000000E+00
   5.89939545E-02  -2.59951156E-01   0.00000000E+00
   1.14794611E-01  -2.15561029E-01   0.00000000E+00
   2.15561030E-01  -1.14794610E-01   0.00000000E+00
   2.59951156E-01  -5.89939540E-02   0.00000000E+00
   2.59951156E-01   5.89939545E-02   0.00000000E+00
   2.15561029E-01   1.14794611E-01   0.00000000E+00
   1.14794610E-01   2.15561030E-01   0.00000000E+00
   5.89939540E-02   2.59951156E-01   0.00000000E+00
  -5.56944011E-02   5.56944011E-02   0.00000000E+00
  -1.11388802E-01   1.11388802E-01   0.00000000E+00
  -5.56944011E-02  -5.56944011E-02   0.00000000E+00
  -1.11388802E-01  -1.11388802E-01   0.00000000E+00
   5.56944011E-02  -5.56944011E-02   0.00000000E+00
   1.11388802E-01  -1.11388802E-01   0.00000000E+00
   5.56944011E-02   5.56944011E-02   0.00000000E+00
   1.11388802E-01   1.11388802E-01   0.00000000E+00
  -1.66666667E-01   5.00000000E-01   1.00000000E+00
  -3.33333333E-01   5.00000000E-01   1.00000000E+00
  -4.36871843E-01   4.36871843E-01   1.00000000E+00
  -3.73743687E-01   3.73743687E-01   1.00000000E+00
  -3.10615530E-01   3.10615530E-01   1.00000000E+00
  -1.75000000E-01   3.03108891E-01   1.00000000E+00
  -9.05866661E-02   3.38074039E-01   1.00000000E+00
   0.00000000E+00   3.87500000E-01   1.00000000E+00
   0.00000000E+00   4.25000000E-01   1.00000000E+00
   0.00000000E+00   4.62500000E-01   1.00000000E+00
   0.00000000E+00   5.00000000E-01   1.66666667E-01
   0.00000000E+00   5.00000000E-01   3.33333333E-01
   0.00000000E+00   5.00000000E-01   5.00000000E-01
   0.00000000E+00   5.00000000E-01   6.66666667E-01
   0.00000000E+00   5.00000000E-01   8.33333333E-01
  -5.00000000E-01   5.00000000E-01   1.66666667E-01
  -5.00000000E-01   5.00000000E-01   3.33333333E-01
  -5.00000000E-01   5.00000000E-01   5.00000000E-01
  -5.00000000E-01   5.00000000E-01   6.66666667E-01
  -5.00000000E-01   5.00000000E-01   8.33333333E-01
  -2.47487373E-01   2.47487373E-01   1.66666667E-01
  -2.47487373E-01   2.47487373E-01   3.33333333E-01
  -2.47487373E-01   2.47487373E-01   5.00000000E-01
  -2.47487373E-01   2.47487373E-01   6.66666667E-01
  -2.47487373E-01   2.47487373E-01   8.33333333E-01
   0.00000000E+00   3.50000000E-01   1.66666667E-01
   0.00000000E+00   3.50000000E-01   3.33333333E-01
   0.00000000E+00   3.50000000E-01   5.00000000E-01
   0.00000000E+00   3.50000000E-01   6.66666667E-01
   0.00000000E+00   3.50000000E-01   8.33333333E-01
   3.33333333E-01   5.00000000E-01   1.00000000E+00
   1.66666667E-01   5.00000000E-01   1.00000000E+00
   9.05866654E-02   3.38074039E-01   1.00000000E+00
   1.75000000E-01   3.03108891E-01   1.00000000E+00
   3.10615530E-01   3.10615530E-01   1.00000000E+00
   3.73743687E-01   3.73743687E-01   1.00000000E+00
   4.36871843E-01   4.36871843E-01   1.00000000E+00
   5.00000000E-01   5.00000000E-01   1.66666667E-01
   5.00000000E-01   5.00000000E-01   3.33333333E-01
   5.00000000E-01   5.00000000E-01   5.00000000E-01
   5.00000000E-01   5.00000000E-01   6.66666667E-01
   5.00000000E-01   5.00000000E-01   8.33333333E-01
   2.47487373E-01   2.47487373E-01   1.66666667E-01
   2.47487373E-01   2.47487373E-01   3.33333333E-01
   2.47487373E-01   2.47487373E-01   5.00000000E-01
   2.47487373E-01   2.47487373E-01   6.66666667E-01
   2.47487373E-01   2.47487373E-01   8.33333333E-01
   5.00000000E-01   1.66666667E-01   1.00000000E+00
   5.00000000E-01   3.33333333E-01   1.00000000E+00
   3.03108891E-01   1.75000000E-01   1.00000000E+00
   3.38074039E-01   9.05866661E-02   1.00000000E+00
   3.87500000E-01   0.00000000E+00   1.00000000E+00
   4.25000000E-01   0.00000000E+00   1.00000000E+00
   4.62500000E-01   0.00000000E+00   1.00000000E+00
   5.00000000E-01   0.00000000E+00   1.66666667E-01
   5.00000000E-01   0.00000000E+00   3.33333333E-01
   5.00000000E-01   0.00000000E+00   5.00000000E-01
[...]
      <PointData Vectors="Displacement">
        <DataArray type="Float64" Name="Displacement" NumberOfComponents="3" format="ascii">
  -1.49151541E-15  -7.20966022E-16  -3.24042627E-16
   2.58661154E-15   1.38757859E-15  -4.14598916E-16
  -1.65927683E-15   2.28724890E-16   5.42852767E-17
  -1.10458459E-15   9.77969765E-16   5.03082736E-16
   1.50522512E-13   5.28408361E-14   3.20895779E-14
   3.81995605E-12  -2.65333440E-03   3.25700501E-14
   3.38853155E-01   1.84710994E-12   3.28460525E-14
  -3.51933548E-12   2.65333440E-03   3.20877519E-14
  -3.38853155E-01  -1.74131392E-12   3.25333261E-14
  -2.40730093E-01  -1.57288799E-03   3.24472868E-14
   2.40730093E-01  -1.57288798E-03   3.26682540E-14
   2.40730093E-01   1.57288799E-03   3.23553052E-14
  -2.40730093E-01   1.57288798E-03   3.16585714E-14
   2.43148628E-12  -2.36346662E-03   3.25986302E-14
   2.90499721E-01   2.29002551E-12   3.29068489E-14
  -2.13089478E-12   2.36346662E-03   3.22097644E-14
  -2.90499721E-01  -2.18451086E-12   3.19829380E-14
   1.62118580E-01  -1.31062518E-03   3.24544507E-14
   1.62118580E-01   1.31062519E-03   3.23880885E-14
  -1.62118580E-01   1.31062518E-03   3.19524571E-14
  -1.62118580E-01  -1.31062519E-03   3.23836174E-14
   1.44772075E-13   5.22691753E-14   3.16190414E-14
   1.49577829E-13   5.16341906E-14   3.22416875E-14
   1.44847363E-13   5.22230923E-14   3.31702128E-14
   1.48850551E-13   5.04005535E-14   3.22705723E-14
   1.45464087E-13   5.25095141E-14   3.28050648E-14
  -9.10761630E-16  -1.99559795E-16   5.00519193E-16
   2.40730093E-01  -1.57288798E-03   3.25879023E-14
   1.51128031E-13   5.24078275E-14   3.26525548E-14
   3.82097262E-12  -2.65333440E-03   3.25940237E-14
   2.25459620E-16  -3.57195465E-16  -8.39323587E-16
  -2.40730093E-01  -1.57288799E-03   3.21829641E-14
   1.55273766E-13   5.10910854E-14   3.13062906E-14
  -3.38853155E-01  -1.74160385E-12   3.17351730E-14
  -4.19747139E-15   3.67714837E-16  -1.76761453E-15
  -2.40730093E-01   1.57288798E-03   3.17463958E-14
   1.45027515E-13   5.43971473E-14   3.25530841E-14
  -3.51881553E-12   2.65333440E-03   3.23342510E-14
   6.32768802E-16   1.09197701E-15  -9.63669493E-16
   2.40730093E-01   1.57288799E-03   3.22449390E-14
   1.50830060E-13   5.07745142E-14   3.18407135E-14
   3.38853155E-01   1.84636018E-12   3.22694631E-14
   1.62118580E-01  -1.31062518E-03   3.25902587E-14
   2.43250511E-12  -2.36346662E-03   3.24717957E-14
   2.90499721E-01   2.28982081E-12   3.25004046E-14
   1.62118580E-01   1.31062519E-03   3.24154864E-14
  -2.13022295E-12   2.36346662E-03   3.21417854E-14
  -1.62118580E-01   1.31062518E-03   3.20654704E-14
  -2.90499721E-01  -2.18483435E-12   3.19850322E-14
  -1.62118580E-01  -1.31062519E-03   3.23099182E-14
  -1.18243462E-03  -1.18902923E-12   3.19787015E-14
   2.84211312E-03   9.65476847E-12   3.14120740E-14
  -2.84211312E-03  -9.54635243E-12   3.16612458E-14
   1.18243462E-03   1.29387151E-12   3.12923445E-14
   6.71742741E-12   8.86851904E-02   3.24828996E-14
  -2.16861176E-11   9.94713399E-02   3.21164506E-14
   2.19880469E-11  -9.94713399E-02   3.09461457E-14
  -6.41711058E-12  -8.86851904E-02   3.19360881E-14
   1.18243462E-03   1.29502334E-12   3.25088265E-14
  -2.84211312E-03  -9.54645000E-12   3.06383008E-14
   2.84211312E-03   9.65452297E-12   3.18837635E-14
  -1.18243462E-03  -1.18875760E-12   3.38220784E-14
  -6.41537394E-12  -8.86851904E-02   3.22733635E-14
   2.19904001E-11  -9.94713399E-02   3.16826350E-14
  -2.16863735E-11   9.94713399E-02   3.16696287E-14
   6.71466203E-12   8.86851904E-02   3.33206446E-14
   8.83704852E-02  -2.44993344E-03   3.25202487E-14
   1.70527416E-01  -2.02300894E-03   3.24530261E-14
   2.94259281E-01  -1.03238769E-03   3.27099999E-14
   3.27589033E-01  -5.24453099E-04   3.27402332E-14
   3.27589033E-01   5.24453108E-04   3.29297431E-14
   2.94259280E-01   1.03238769E-03   3.26492021E-14
   1.70527415E-01   2.02300895E-03   3.22463770E-14
   8.83704845E-02   2.44993344E-03   3.21783478E-14
  -8.83704852E-02   2.44993344E-03   3.18881950E-14
  -1.70527416E-01   2.02300894E-03   3.17354829E-14
  -2.94259281E-01   1.03238769E-03   3.18313983E-14
  -3.27589033E-01   5.24453099E-04   3.19744082E-14
  -3.27589033E-01  -5.24453108E-04   3.20789525E-14
  -2.94259280E-01  -1.03238769E-03   3.20476081E-14
  -1.70527415E-01  -2.02300895E-03   3.24266263E-14
  -8.83704845E-02  -2.44993344E-03   3.25702336E-14
   1.29402827E-03  -3.54287818E-02   2.38889703E-14
   2.58701569E-02  -5.63065410E-02   2.94937489E-14
   9.21574024E-02  -5.27820764E-02   3.16302369E-14
   1.29402827E-03   3.54287818E-02   2.33139551E-14
   2.58701569E-02   5.63065410E-02   2.89270358E-14
   9.21574024E-02   5.27820764E-02   3.09614688E-14
  -1.29402827E-03   3.54287818E-02   2.28824030E-14
  -2.58701569E-02   5.63065410E-02   2.87439496E-14
  -9.21574024E-02   5.27820764E-02   3.06901116E-14
  -1.29402827E-03  -3.54287818E-02   2.31611558E-14
  -2.58701569E-02  -5.63065410E-02   2.89031184E-14
  -9.21574024E-02  -5.27820764E-02   3.13975502E-14
   2.34210523E-13   7.23278501E-03   3.28649060E-14
   1.03795795E-12   1.14844646E-02   3.25129591E-14
   6.11709295E-12   9.78107886E-03   3.24130644E-14
   8.85789313E-02   1.35551672E-11   3.22642689E-14
   1.76207260E-01   2.30390693E-11   3.21003707E-14
   2.61237915E-01   2.27381387E-11   3.22187550E-14
   5.59652477E-14  -7.23278501E-03   3.20824008E-14
  -7.45771130E-13  -1.14844646E-02   3.20445220E-14
  -5.82160120E-12  -9.78107886E-03   3.21264934E-14
  -8.85789313E-02  -1.34534298E-11   3.27254462E-14
  -1.76207260E-01  -2.29367175E-11   3.17808259E-14
  -2.61237915E-01  -2.26345686E-11   3.18327559E-14
   5.73840179E-02  -2.09406380E-03   3.25718929E-14
   1.11509459E-01  -1.72810366E-03   3.23980643E-14
   2.08942209E-01  -8.78422594E-04   3.26398116E-14
   2.51788670E-01  -4.23994706E-04   3.27724496E-14
   2.51788669E-01   4.23994714E-04   3.26009102E-14
   2.08942209E-01   8.78422600E-04   3.24703644E-14
   1.11509459E-01   1.72810366E-03   3.21882775E-14
   5.73840174E-02   2.09406381E-03   3.23195755E-14
  -5.73840179E-02   2.09406380E-03   3.20152200E-14
  -1.11509459E-01   1.72810366E-03   3.20406035E-14
  -2.08942209E-01   8.78422594E-04   3.19587422E-14
  -2.51788670E-01   4.23994706E-04   3.18796052E-14
  -2.51788669E-01  -4.23994714E-04   3.19510589E-14
  -2.08942209E-01  -8.78422600E-04   3.21658315E-14
  -1.11509459E-01  -1.72810366E-03   3.23601923E-14
  -5.73840174E-02  -2.09406381E-03   3.24511486E-14
   5.39445158E-02  -4.96400857E-04   3.22870601E-14
   1.07958663E-01  -9.49856129E-04   3.25218406E-14
   5.39445158E-02   4.96400858E-04   3.22458128E-14
   1.07958663E-01   9.49856131E-04   3.22471787E-14
  -5.39445158E-02   4.96400857E-04   3.22477219E-14
  -1.07958663E-01   9.49856129E-04   3.20682440E-14
  -5.39445158E-02  -4.96400858E-04   3.23292556E-14
  -1.07958663E-01  -9.49856131E-04   3.23085589E-14
   2.84211312E-03   9.65383562E-12   3.11069143E-14
  -1.18243462E-03  -1.18763691E-12   3.26078597E-14
   1.29402827E-03  -3.54287818E-02   2.39553749E-14
   2.58701569E-02  -5.63065410E-02   2.96127230E-14
   9.21574024E-02  -5.27820764E-02   3.14638644E-14
   1.70527416E-01  -2.02300894E-03   3.25869240E-14
   8.83704852E-02  -2.44993344E-03   3.25321299E-14
   6.11800801E-12   9.78107886E-03   3.26501436E-14
   1.03826779E-12   1.14844646E-02   3.24711000E-14
   2.34448742E-13   7.23278501E-03   3.22981114E-14
   1.45896962E-13   5.33037136E-14   3.24166579E-14
   1.47980194E-13   5.28800336E-14   3.21932156E-14
   1.48993472E-13   5.28376343E-14   3.20318641E-14
   1.48151541E-13   5.29310159E-14   3.22353210E-14
   1.46002537E-13   5.32384464E-14   3.21069075E-14
   1.50152018E-13   5.27865308E-14   2.54431896E-14
   1.45371566E-13   5.12350672E-14   2.96558990E-14
   1.50729287E-13   5.24082877E-14   3.02517526E-14
   1.48727763E-13   5.21338646E-14   2.94707968E-14
   1.53124279E-13   5.24467535E-14   2.53553713E-14
   2.40730093E-01  -1.57288798E-03   3.27452228E-14
   2.40730093E-01  -1.57288798E-03   3.26147859E-14
   2.40730093E-01  -1.57288798E-03   3.25979936E-14
   2.40730093E-01  -1.57288798E-03   3.24163092E-14
   2.40730093E-01  -1.57288798E-03   3.25017050E-14
   3.82048171E-12  -2.65333440E-03   3.25207836E-14
   3.82097940E-12  -2.65333440E-03   3.24167218E-14
   3.82114488E-12  -2.65333440E-03   3.25338157E-14
   3.82089520E-12  -2.65333440E-03   3.26034735E-14
   3.82058730E-12  -2.65333440E-03   3.25368030E-14
   1.18243462E-03   1.29176569E-12   3.18619803E-14
  -2.84211312E-03  -9.54714677E-12   3.13792637E-14
  -8.83704845E-02  -2.44993344E-03   3.25004455E-14
  -1.70527415E-01  -2.02300895E-03   3.24113096E-14
  -9.21574024E-02  -5.27820764E-02   3.07188186E-14
  -2.58701569E-02  -5.63065410E-02   2.87784074E-14
  -1.29402827E-03  -3.54287818E-02   2.30478236E-14
   1.49973854E-13   5.38891525E-14   2.54448872E-14
   1.49294844E-13   5.22113582E-14   2.89741571E-14
   1.52379970E-13   5.34411490E-14   2.97369974E-14
   1.48383437E-13   5.23828425E-14   2.90982596E-14
   1.50807925E-13   5.25117340E-14   2.43248451E-14
  -2.40730093E-01  -1.57288799E-03   3.21252557E-14
  -2.40730093E-01  -1.57288799E-03   3.21535150E-14
  -2.40730093E-01  -1.57288799E-03   3.23640239E-14
  -2.40730093E-01  -1.57288799E-03   3.23647128E-14
  -2.40730093E-01  -1.57288799E-03   3.22991271E-14
   2.19887135E-11  -9.94713399E-02   3.06194687E-14
  -6.41400084E-12  -8.86851904E-02   3.12860243E-14
  -2.94259280E-01  -1.03238769E-03   3.18576358E-14
  -3.27589033E-01  -5.24453108E-04   3.19131199E-14
  -2.61237915E-01  -2.26345506E-11   3.21179638E-14
  -1.76207260E-01  -2.29370800E-11   3.20935961E-14
  -8.85789313E-02  -1.34540125E-11   3.09153258E-14
   1.51419286E-13   5.19484351E-14   3.22399171E-14
   1.49121050E-13   5.24712423E-14   3.20212328E-14
   1.49680383E-13   5.28109126E-14   3.17935456E-14
   1.50238878E-13   5.23701488E-14   3.16834301E-14
   1.50704685E-13   5.16521862E-14   3.11228754E-14
  -3.38853155E-01  -1.74144253E-12   3.18430098E-14
  -3.38853155E-01  -1.74157970E-12   3.18790999E-14
  -3.38853155E-01  -1.74126844E-12   3.23048229E-14
  -3.38853155E-01  -1.74124003E-12   3.22362021E-14
  -3.38853155E-01  -1.74170803E-12   3.20210989E-14
   6.71268531E-12   8.86851904E-02   3.21361809E-14
  -2.16797086E-11   9.94713399E-02   2.96811819E-14
  -3.27589033E-01   5.24453099E-04   3.15942796E-14
  -2.94259281E-01   1.03238769E-03   3.17539624E-14
  -9.21574024E-02   5.27820764E-02   3.08292647E-14
  -2.58701569E-02   5.63065410E-02   2.85129896E-14
  -1.29402827E-03   3.54287818E-02   2.28957890E-14
   1.53557272E-13   5.30806279E-14   2.38631987E-14
   1.49232784E-13   5.15264816E-14   2.84733122E-14
   1.54213348E-13   5.46330698E-14   2.92235366E-14
   1.48406472E-13   5.26771556E-14   2.83447238E-14
   1.51908470E-13   5.34802960E-14   2.42458431E-14
  -2.40730093E-01   1.57288798E-03   3.16788855E-14
  -2.40730093E-01   1.57288798E-03   3.19668945E-14
  -2.40730093E-01   1.57288798E-03   3.21536164E-14
  -2.40730093E-01   1.57288798E-03   3.21340568E-14
  -2.40730093E-01   1.57288798E-03   3.19678939E-14
  -2.84211312E-03  -9.55089420E-12   3.00791771E-14
   1.18243462E-03   1.29185069E-12   3.17599979E-14
  -1.70527416E-01   2.02300894E-03   3.20365900E-14
  -8.83704852E-02   2.44993344E-03   3.22972858E-14
  -5.82087152E-12  -9.78107886E-03   3.21402402E-14
  -7.44824405E-13  -1.14844646E-02   3.19956121E-14
   5.64530018E-14  -7.23278501E-03   3.19663455E-14
   1.46945459E-13   5.33395207E-14   3.17740716E-14
   1.48844049E-13   5.34124381E-14   3.17941854E-14
   1.49670657E-13   5.30047153E-14   3.15483997E-14
   1.48621449E-13   5.25862417E-14   3.17696201E-14
   1.46922313E-13   5.25519280E-14   3.19414348E-14
  -3.51901576E-12   2.65333440E-03   3.22001342E-14
  -3.51833222E-12   2.65333440E-03   3.20286983E-14
  -3.51818570E-12   2.65333440E-03   3.20277210E-14
  -3.51857576E-12   2.65333440E-03   3.20751593E-14
  -3.51880063E-12   2.65333440E-03   3.21392671E-14
  -1.18243462E-03  -1.18660752E-12   3.17336247E-14
   2.84211312E-03   9.65426642E-12   3.16178246E-14
   8.83704845E-02   2.44993344E-03   3.22214031E-14
   1.70527415E-01   2.02300895E-03   3.23777271E-14
   9.21574024E-02   5.27820764E-02   3.11477503E-14
   2.58701569E-02   5.63065410E-02   2.91358132E-14
   1.29402827E-03   3.54287818E-02   2.32919742E-14
   1.51509580E-13   5.25244299E-14   2.47657374E-14
   1.47839109E-13   5.12951184E-14   2.93555210E-14
   1.52027787E-13   5.16915226E-14   3.00722327E-14
   1.48581485E-13   5.21198693E-14   2.91935739E-14
   1.52339471E-13   5.27243938E-14   2.50856436E-14
   2.40730093E-01   1.57288799E-03   3.24055912E-14
   2.40730093E-01   1.57288799E-03   3.23121970E-14
   2.40730093E-01   1.57288799E-03   3.22205811E-14
   2.40730093E-01   1.57288799E-03   3.21134421E-14
   2.40730093E-01   1.57288799E-03   3.22024063E-14
  -2.16833860E-11   9.94713399E-02   3.04448482E-14
   6.71606661E-12   8.86851904E-02   3.28615449E-14
   2.94259280E-01   1.03238769E-03   3.23737275E-14
   3.27589033E-01   5.24453108E-04   3.25744546E-14
   2.61237915E-01   2.27374353E-11   3.25138908E-14
   1.76207260E-01   2.30387979E-11   3.23165216E-14
   8.85789313E-02   1.35553150E-11   3.20756112E-14
   1.53280767E-13   5.07370008E-14   3.27294566E-14
   1.53099019E-13   5.19494816E-14   3.23253417E-14
   1.54011967E-13   5.16260926E-14   3.20061934E-14
   1.50792987E-13   5.15646864E-14   3.20696894E-14
   1.51995666E-13   5.09005748E-14   3.24386355E-14
   3.38853155E-01   1.84728364E-12   3.27366726E-14
   3.38853155E-01   1.84757897E-12   3.27051770E-14
   3.38853155E-01   1.84704759E-12   3.21373414E-14
   3.38853155E-01   1.84678054E-12   3.22961501E-14
   3.38853155E-01   1.84670264E-12   3.25330516E-14
  -6.41419407E-12  -8.86851904E-02   3.17081370E-14
   2.19910477E-11  -9.94713399E-02   3.19349024E-14
   3.27589033E-01  -5.24453099E-04   3.24244187E-14
   2.94259281E-01  -1.03238769E-03   3.26262293E-14
   1.11509459E-01  -1.72810366E-03   3.23733110E-14
   5.73840179E-02  -2.09406380E-03   3.25370279E-14
   1.62118580E-01  -1.31062518E-03   3.25262282E-14
   1.62118580E-01  -1.31062518E-03   3.25472305E-14
   1.62118580E-01  -1.31062518E-03   3.25246688E-14
   1.62118580E-01  -1.31062518E-03   3.24496988E-14
   1.62118580E-01  -1.31062518E-03   3.24150130E-14
   2.43204117E-12  -2.36346662E-03   3.24590818E-14
   2.43244572E-12  -2.36346662E-03   3.24627956E-14
   2.43272039E-12  -2.36346662E-03   3.25138100E-14
   2.43238812E-12  -2.36346662E-03   3.25186094E-14
   2.43222714E-12  -2.36346662E-03   3.25586125E-14
   2.51788670E-01  -4.23994706E-04   3.27226674E-14
   2.08942209E-01  -8.78422594E-04   3.24515215E-14
   2.90499721E-01   2.29047485E-12   3.26010073E-14
   2.90499721E-01   2.29032295E-12   3.24210627E-14
   2.90499721E-01   2.29034781E-12   3.23974410E-14
   2.90499721E-01   2.28995242E-12   3.23258205E-14
   2.90499721E-01   2.28980688E-12   3.24007140E-14
   2.08942209E-01   8.78422600E-04   3.24304177E-14
   2.51788669E-01   4.23994714E-04   3.24474260E-14
   1.62118580E-01   1.31062519E-03   3.22758198E-14
   1.62118580E-01   1.31062519E-03   3.23006042E-14
   1.62118580E-01   1.31062519E-03   3.22109966E-14
   1.62118580E-01   1.31062519E-03   3.21889494E-14
   1.62118580E-01   1.31062519E-03   3.23012772E-14
   5.73840174E-02   2.09406381E-03   3.22249051E-14
   1.11509459E-01   1.72810366E-03   3.23847811E-14
  -2.13046345E-12   2.36346662E-03   3.21849821E-14
  -2.12985537E-12   2.36346662E-03   3.20895966E-14
  -2.12973263E-12   2.36346662E-03   3.20470794E-14
  -2.13000673E-12   2.36346662E-03   3.20806435E-14
  -2.13026759E-12   2.36346662E-03   3.22173255E-14
  -1.11509459E-01   1.72810366E-03   3.21277854E-14
  -5.73840179E-02   2.09406380E-03   3.22995191E-14
  -1.62118580E-01   1.31062518E-03   3.20675867E-14
  -1.62118580E-01   1.31062518E-03   3.21173515E-14
  -1.62118580E-01   1.31062518E-03   3.21560890E-14
  -1.62118580E-01   1.31062518E-03   3.20995254E-14
  -1.62118580E-01   1.31062518E-03   3.20775776E-14
  -2.51788670E-01   4.23994706E-04   3.19180181E-14
  -2.08942209E-01   8.78422594E-04   3.17543871E-14
  -2.90499721E-01  -2.18449703E-12   3.20460852E-14
  -2.90499721E-01  -2.18459748E-12   3.20889059E-14
  -2.90499721E-01  -2.18453179E-12   3.22625511E-14
  -2.90499721E-01  -2.18431330E-12   3.22125863E-14
  -2.90499721E-01  -2.18478646E-12   3.20478472E-14
  -2.08942209E-01  -8.78422600E-04   3.23675994E-14
  -2.51788669E-01  -4.23994714E-04   3.17621499E-14
  -1.62118580E-01  -1.31062519E-03   3.23006829E-14
  -1.62118580E-01  -1.31062519E-03   3.22545357E-14
  -1.62118580E-01  -1.31062519E-03   3.23517409E-14
  -1.62118580E-01  -1.31062519E-03   3.23301785E-14
  -1.62118580E-01  -1.31062519E-03   3.23597567E-14
  -5.73840174E-02  -2.09406381E-03   3.25453710E-14
  -1.11509459E-01  -1.72810366E-03   3.22734632E-14
   5.39445158E-02  -4.96400857E-04   3.25714236E-14
   1.07958663E-01  -9.49856129E-04   3.24084132E-14
   1.07958663E-01   9.49856131E-04   3.23819399E-14
   5.39445158E-02   4.96400858E-04   3.23936698E-14
   1.50805422E-13   5.28025206E-14   3.22680196E-14
   1.51344334E-13   5.28229279E-14   3.22819783E-14
   1.51215704E-13   5.29120878E-14   3.22349925E-14
   1.51040233E-13   5.26709396E-14   3.22940008E-14
   1.51072131E-13   5.25705940E-14   3.23596427E-14
  -1.07958663E-01   9.49856129E-04   3.22950797E-14
  -5.39445158E-02   4.96400857E-04   3.22507678E-14
  -1.07958663E-01  -9.49856131E-04   3.22170343E-14
  -5.39445158E-02  -4.96400858E-04   3.22787408E-14
   7.81849203E-03   1.00414201E-03   3.22631579E-14
   2.37446530E-02   3.74668769E-03   3.25137919E-14
   5.03448319E-02   4.63042040E-03   3.26583565E-14
   6.17510260E-03  -1.54505508E-02   3.16278930E-14
   3.04807032E-02  -2.04695793E-02   3.14606278E-14
   8.07968019E-02  -1.37548955E-02   3.21247572E-14
  -6.17510259E-03  -1.54505507E-02   3.08019160E-14
  -3.04807031E-02  -2.04695792E-02   3.09554516E-14
  -8.07968017E-02  -1.37548954E-02   3.16715407E-14
  -7.81849202E-03   1.00414200E-03   3.18693866E-14
  -2.37446529E-02   3.74668770E-03   3.23278777E-14
  -5.03448317E-02   4.63042043E-03   3.24179876E-14
  -6.79719576E-02  -9.03229766E-02   3.15991678E-14
  -1.46347949E-01  -7.39237028E-02   3.18046887E-14
  -2.34010213E-01  -4.64003025E-02   3.18843824E-14
  -2.92536405E-02  -9.63597628E-02   3.06498110E-14
  -8.35980575E-02  -9.16436723E-02   3.04754965E-14
  -1.69616664E-01  -6.62721940E-02   3.15466458E-14
  -2.92536405E-02   9.63597629E-02   3.07413024E-14
  -8.35980575E-02   9.16436723E-02   3.11125369E-14
  -1.69616664E-01   6.62721941E-02   3.14261969E-14
  -6.79719576E-02   9.03229765E-02   3.22910364E-14
  -1.46347949E-01   7.39237027E-02   3.19531754E-14
  -2.34010213E-01   4.64003024E-02   3.16036074E-14
  -7.81849203E-03  -1.00414201E-03   3.14562898E-14
  -2.37446530E-02  -3.74668769E-03   3.17265139E-14
  -5.03448319E-02  -4.63042040E-03   3.19584858E-14
  -6.17510260E-03   1.54505508E-02   3.05397758E-14
  -3.04807032E-02   2.04695793E-02   3.06916564E-14
  -8.07968019E-02   1.37548955E-02   3.14285947E-14
   6.17510259E-03   1.54505507E-02   3.09269514E-14
   3.04807031E-02   2.04695792E-02   3.10492280E-14
   8.07968017E-02   1.37548954E-02   3.16426969E-14
   7.81849202E-03  -1.00414200E-03   3.19032045E-14
   2.37446529E-02  -3.74668770E-03   3.20256227E-14
   5.03448317E-02  -4.63042043E-03   3.22254506E-14
   6.79719576E-02   9.03229766E-02   3.16559918E-14
   1.46347949E-01   7.39237028E-02   3.17751955E-14
   2.34010213E-01   4.64003025E-02   3.24282630E-14
   2.92536405E-02   9.63597628E-02   3.14567678E-14
   8.35980575E-02   9.16436723E-02   3.13872072E-14
   1.69616664E-01   6.62721940E-02   3.16020754E-14
   2.92536405E-02  -9.63597629E-02   3.12650368E-14
   8.35980575E-02  -9.16436723E-02   3.11636820E-14
   1.69616664E-01  -6.62721941E-02   3.20797059E-14
   6.79719576E-02  -9.03229765E-02   3.20830040E-14
   1.46347949E-01  -7.39237027E-02   3.26316789E-14