<?xml version="1.0"?>
<VTKFile type="UnstructuredGrid" version="0.1">
  <UnstructuredGrid>
    <Piece NumberOfPoints="1183" NumberOfCells="936">
      <Points>
        <DataArray type="Float64" NumberOfComponents="3" format="ascii">
  -5.00000000E-01  -5.00000000E-01   0.00000000E+00
   5.00000000E-01  -5.00000000E-01   0.00000000E+00
   5.00000000E-01   5.00000000E-01   0.00000000E+00
  -5.00000000E-01   5.00000000E-01   0.00000000E+00
   0.00000000E+00   0.00000000E+00   0.00000000E+00
   0.00000000E+00   3.50000000E-01   0.00000000E+00
  -3.50000000E-01   0.00000000E+00   0.00000000E+00
   0.00000000E+00  -3.50000000E-01   0.00000000E+00
   3.50000000E-01   0.00000000E+00   0.00000000E+00
   2.47487373E-01   2.47487373E-01   0.00000000E+00
  -2.47487373E-01   2.47487373E-01   0.00000000E+00
  -2.47487373E-01  -2.47487373E-01   0.00000000E+00
   2.47487373E-01  -2.47487373E-01   0.00000000E+00
   0.00000000E+00   3.00000000E-01   0.00000000E+00
  -3.00000000E-01   0.00000000E+00   0.00000000E+00
   0.00000000E+00  -3.00000000E-01   0.00000000E+00
   3.00000000E-01   0.00000000E+00   0.00000000E+00
  -1.67083203E-01   1.67083203E-01   0.00000000E+00
  -1.67083203E-01  -1.67083203E-01   0.00000000E+00
   1.67083203E-01  -1.67083203E-01   0.00000000E+00
   1.67083203E-01   1.67083203E-01   0.00000000E+00
   0.00000000E+00  -5.00000000E-01   0.00000000E+00
   5.00000000E-01   0.00000000E+00   0.00000000E+00
   0.00000000E+00   5.00000000E-01   0.00000000E+00
  -5.00000000E-01   0.00000000E+00   0.00000000E+00
   0.00000000E+00   5.00000000E-01   1.00000000E+00
  -5.00000000E-01   5.00000000E-01   1.00000000E+00
  -2.47487373E-01   2.47487373E-01   1.00000000E+00
   0.00000000E+00   0.00000000E+00   1.00000000E+00
   0.00000000E+00   3.50000000E-01   1.00000000E+00
   5.00000000E-01   5.00000000E-01   1.00000000E+00
   2.47487373E-01   2.47487373E-01   1.00000000E+00
   5.00000000E-01   0.00000000E+00   1.00000000E+00
   3.50000000E-01   0.00000000E+00   1.00000000E+00
   5.00000000E-01  -5.00000000E-01   1.00000000E+00
   2.47487373E-01  -2.47487373E-01   1.00000000E+00
   0.00000000E+00  -5.00000000E-01   1.00000000E+00
   0.00000000E+00  -3.50000000E-01   1.00000000E+00
  -5.00000000E-01  -5.00000000E-01   1.00000000E+00
  -2.47487373E-01  -2.47487373E-01   1.00000000E+00
  -5.00000000E-01   0.00000000E+00   1.00000000E+00
  -3.50000000E-01   0.00000000E+00   1.00000000E+00
  -1.67083203E-01   1.67083203E-01   1.00000000E+00
   0.00000000E+00   3.00000000E-01   1.00000000E+00
  -3.00000000E-01   0.00000000E+00   1.00000000E+00
  -1.67083203E-01  -1.67083203E-01   1.00000000E+00
   0.00000000E+00  -3.00000000E-01   1.00000000E+00
   1.67083203E-01  -1.67083203E-01   1.00000000E+00
   3.00000000E-01   0.00000000E+00   1.00000000E+00
   1.67083203E-01   1.67083203E-01   1.00000000E+00
  -3.33333333E-01  -5.00000000E-01   0.00000000E+00
  -1.66666667E-01  -5.00000000E-01   0.00000000E+00
   1.66666667E-01  -5.00000000E-01   0.00000000E+00
   3.33333333E-01  -5.00000000E-01   0.00000000E+00
   5.00000000E-01  -3.33333333E-01   0.00000000E+00
   5.00000000E-01  -1.66666667E-01   0.00000000E+00
   5.00000000E-01   1.66666667E-01   0.00000000E+00
   5.00000000E-01   3.33333333E-01   0.00000000E+00
   3.33333333E-01   5.00000000E-01   0.00000000E+00
   1.66666667E-01   5.00000000E-01   0.00000000E+00
  -1.66666667E-01   5.00000000E-01   0.00000000E+00
  -3.33333333E-01   5.00000000E-01   0.00000000E+00
  -5.00000000E-01   3.33333333E-01   0.00000000E+00
  -5.00000000E-01   1.66666667E-01   0.00000000E+00
  -5.00000000E-01  -1.66666667E-01   0.00000000E+00
  -5.00000000E-01  -3.33333333E-01   0.00000000E+00
  -9.05866661E-02   3.38074039E-01   0.00000000E+00
  -1.75000000E-01   3.03108891E-01   0.00000000E+00
  -3.03108891E-01   1.75000000E-01   0.00000000E+00
  -3.38074039E-01   9.05866654E-02   0.00000000E+00
  -3.38074039E-01  -9.05866661E-02   0.00000000E+00
  -3.03108891E-01  -1.75000000E-01   0.00000000E+00
  -1.75000000E-01  -3.03108891E-01   0.00000000E+00
  -9.05866654E-02  -3.38074039E-01   0.00000000E+00
   9.05866661E-02  -3.38074039E-01   0.00000000E+00
   1.75000000E-01  -3.03108891E-01   0.00000000E+00
   3.03108891E-01  -1.75000000E-01   0.00000000E+00
   3.38074039E-01  -9.05866654E-02   0.00000000E+00
   3.38074039E-01   9.05866661E-02   0.00000000E+00
   3.03108891E-01   1.75000000E-01   0.00000000E+00
   1.75000000E-01   3.03108891E-01   0.00000000E+00
   9.05866654E-02   3.38074039E-01   0.00000000E+00
  -4.36871843E-01   4.36871843E-01   0.00000000E+00
  -3.73743687E-01   3.73743687E-01   0.00000000E+00
  -3.10615530E-01   3.10615530E-01   0.00000000E+00
  -4.36871843E-01  -4.36871843E-01   0.00000000E+00
  -3.73743687E-01  -3.73743687E-01   0.00000000E+00
  -3.10615530E-01  -3.10615530E-01   0.00000000E+00
   4.36871843E-01  -4.36871843E-01   0.00000000E+00
   3.73743687E-01  -3.73743687E-01   0.00000000E+00
   3.10615530E-01  -3.10615530E-01   0.00000000E+00
   4.36871843E-01   4.36871843E-01   0.00000000E+00
   3.73743687E-01   3.73743687E-01   0.00000000E+00
   3.10615530E-01   3.10615530E-01   0.00000000E+00
   0.00000000E+00   4.62500000E-01   0.00000000E+00
   0.00000000E+00   4.25000000E-01   0.00000000E+00
   0.00000000E+00   3.87500000E-01   0.00000000E+00
  -4.62500000E-01   0.00000000E+00   0.00000000E+00
  -4.25000000E-01   0.00000000E+00   0.00000000E+00
  -3.87500000E-01   0.00000000E+00   0.00000000E+00
   0.00000000E+00  -4.62500000E-01   0.00000000E+00
   0.00000000E+00  -4.25000000E-01   0.00000000E+00
   0.00000000E+00  -3.87500000E-01   0.00000000E+00
   4.62500000E-01   0.00000000E+00   0.00000000E+00
   4.25000000E-01   0.00000000E+00   0.00000000E+00
   3.87500000E-01   0.00000000E+00   0.00000000E+00
  -5.89939545E-02   2.59951156E-01   0.00000000E+00
  -1.14794611E-01   2.15561029E-01   0.00000000E+00
  -2.15561030E-01   1.14794610E-01   0.00000000E+00
  -2.59951156E-01   5.89939540E-02   0.00000000E+00
  -2.59951156E-01  -5.89939545E-02   0.00000000E+00
  -2.15561029E-01  -1.14794611E-01   0.00000000E+00
  -1.14794610E-01  -2.15561030E-01   0.00000000E+00
  -5.89939540E-02  -2.59951156E-01   0.00000000E+00
   5.89939545E-02  -2.59951156E-01   0.00000000E+00
   1.14794611E-01  -2.15561029E-01   0.00000000E+00
   2.15561030E-01  -1.14794610E-01   0.00000000E+00
   2.59951156E-01  -5.89939540E-02   0.00000000E+00
   2.59951156E-01   5.89939545E-02   0.00000000E+00
   2.15561029E-01   1.14794611E-01   0.00000000E+00
   1.14794610E-01   2.15561030E-01   0.00000000E+00
   5.89939540E-02   2.59951156E-01   0.00000000E+00
  -5.56944011E-02   5.56944011E-02   0.00000000E+00
  -1.11388802E-01   1.11388802E-01   0.00000000E+00
  -5.56944011E-02  -5.56944011E-02   0.00000000E+00
  -1.11388802E-01  -1.11388802E-01   0.00000000E+00
   5.56944011E-02  -5.56944011E-02   0.00000000E+00
   1.11388802E-01  -1.11388802E-01   0.00000000E+00
   5.56944011E-02   5.56944011E-02   0.00000000E+00
   1.11388802E-01   1.11388802E-01   0.00000000E+00
  -1.66666667E-01   5.00000000E-01   1.00000000E+00
  -3.33333333E-01   5.00000000E-01   1.00000000E+00
  -4.36871843E-01   4.36871843E-01   1.00000000E+00
  -3.73743687E-01   3.73743687E-01   1.00000000E+00
  -3.10615530E-01   3.10615530E-01   1.00000000E+00
  -1.75000000E-01   3.03108891E-01   1.00000000E+00
  -9.05866661E-02   3.38074039E-01   1.00000000E+00
   0.00000000E+00   3.87500000E-01   1.00000000E+00
   0.00000000E+00   4.25000000E-01   1.00000000E+00
   0.00000000E+00   4.62500000E-01   1.00000000E+00
   0.00000000E+00   5.00000000E-01   1.66666667E-01
   0.00000000E+00   5.00000000E-01   3.33333333E-01
   0.00000000E+00   5.00000000E-01   5.00000000E-01
   0.00000000E+00   5.00000000E-01   6.66666667E-01
   0.00000000E+00   5.00000000E-01   8.33333333E-01
  -5.00000000E-01   5.00000000E-01   1.66666667E-01
  -5.00000000E-01   5.00000000E-01   3.33333333E-01
  -5.00000000E-01   5.00000000E-01   5.00000000E-01
  -5.00000000E-01   5.00000000E-01   6.66666667E-01
  -5.00000000E-01   5.00000000E-01   8.33333333E-01
  -2.47487373E-01   2.47487373E-01   1.66666667E-01
  -2.47487373E-01   2.47487373E-01   3.33333333E-01
  -2.47487373E-01   2.47487373E-01   5.00000000E-01
  -2.47487373E-01   2.47487373E-01   6.66666667E-01
  -2.47487373E-01   2.47487373E-01   8.33333333E-01
   0.00000000E+00   3.50000000E-01   1.66666667E-01
   0.00000000E+00   3.50000000E-01   3.33333333E-01
   0.00000000E+00   3.50000000E-01   5.00000000E-01
   0.00000000E+00   3.50000000E-01   6.66666667E-01
   0.00000000E+00   3.50000000E-01   8.33333333E-01
   3.33333333E-01   5.00000000E-01   1.00000000E+00
   1.66666667E-01   5.00000000E-01   1.00000000E+00
   9.05866654E-02   3.38074039E-01   1.00000000E+00
   1.75000000E-01   3.03108891E-01   1.00000000E+00
   3.10615530E-01   3.10615530E-01   1.00000000E+00
   3.73743687E-01   3.73743687E-01   1.00000000E+00
   4.36871843E-01   4.36871843E-01   1.00000000E+00
   5.00000000E-01   5.00000000E-01   1.66666667E-01
   5.00000000E-01   5.00000000E-01   3.33333333E-01
   5.00000000E-01   5.00000000E-01   5.00000000E-01
   5.00000000E-01   5.00000000E-01   6.66666667E-01
   5.00000000E-01   5.00000000E-01   8.33333333E-01
   2.47487373E-01   2.47487373E-01   1.66666667E-01
   2.47487373E-01   2.47487373E-01   3.33333333E-01
   2.47487373E-01   2.47487373E-01   5.00000000E-01
   2.47487373E-01   2.47487373E-01   6.66666667E-01
   2.47487373E-01   2.47487373E-01   8.33333333E-01
   5.00000000E-01   1.66666667E-01   1.00000000E+00
   5.00000000E-01   3.33333333E-01   1.00000000E+00
   3.03108891E-01   1.75000000E-01   1.00000000E+00
   3.38074039E-01   9.05866661E-02   1.00000000E+00
   3.87500000E-01   0.00000000E+00   1.00000000E+00
   4.25000000E-01   0.00000000E+00   1.00000000E+00
   4.62500000E-01   0.00000000E+00   1.00000000E+00
   5.00000000E-01   0.00000000E+00   1.66666667E-01
   5.00000000E-01   0.00000000E+00   3.33333333E-01
   5.00000000E-01   0.00000000E+00   5.00000000E-01
[...]
      <PointData Vectors="Displacement">
        <DataArray type="Float64" Name="Displacement" NumberOfComponents="3" format="ascii">
  -9.26165787E-16  -8.08813535E-17   4.16743429E-16
  -3.63842182E-16  -8.23287942E-16   1.08919992E-15
   1.89286040E-15  -1.40859205E-15  -9.89175690E-16
   3.61380681E-16   7.54262900E-16  -2.66245577E-15
   6.48037052E-14   9.69601789E-14   9.83219182E-14
   1.70208387E-12  -1.02451947E-01   9.80421930E-14
   1.02451947E-01   1.73420652E-12   9.85112827E-14
  -1.57269124E-12   1.02451947E-01   9.96229276E-14
  -1.02451947E-01  -1.54058841E-12   9.80397498E-14
  -7.26908942E-02  -7.26908942E-02   9.83346268E-14
   7.26908942E-02  -7.26908942E-02   9.85180613E-14
   7.26908942E-02   7.26908942E-02   9.78044113E-14
  -7.26908942E-02   7.26908942E-02   9.79376260E-14
   1.41877935E-12  -8.78589564E-02   9.83837515E-14
   8.78589564E-02   1.45063807E-12   9.72774381E-14
  -1.28936557E-12   8.78589564E-02   9.87340293E-14
  -8.78589564E-02  -1.25722710E-12   9.90978394E-14
   4.90287616E-02  -4.90287616E-02   9.77521404E-14
   4.90287616E-02   4.90287616E-02   9.78968590E-14
  -4.90287616E-02   4.90287616E-02   9.77912301E-14
  -4.90287616E-02  -4.90287616E-02   9.90385195E-14
   6.21203423E-14   9.71258809E-14   9.92774422E-14
   6.45720412E-14   9.29726704E-14   9.89087998E-14
   6.29452143E-14   9.67822078E-14   9.79619150E-14
   6.50569416E-14   9.34201152E-14   9.90369641E-14
   6.29592578E-14   9.73683862E-14   9.90014188E-14
   4.95957708E-16   9.69279828E-16  -1.05986240E-15
   7.26908942E-02  -7.26908942E-02   9.78334859E-14
   6.44804658E-14   9.78156592E-14   9.85328337E-14
   1.70208493E-12  -1.02451947E-01   9.87556003E-14
   4.19486420E-16  -7.55084738E-16  -3.18944074E-15
  -7.26908942E-02  -7.26908942E-02   9.86725882E-14
   6.46238009E-14   9.32778683E-14   9.87112314E-14
  -1.02451947E-01  -1.53977580E-12   9.92715804E-14
  -7.36636637E-16  -3.61761687E-16  -6.04161342E-16
  -7.26908942E-02   7.26908942E-02   9.90152763E-14
   6.04486688E-14   9.72569730E-14   9.74331051E-14
  -1.57312121E-12   1.02451947E-01   9.74796345E-14
  -7.02609493E-16   1.30618240E-15  -1.69682503E-15
   7.26908942E-02   7.26908942E-02   9.90253059E-14
   6.42944781E-14   9.45770904E-14   9.66718897E-14
   1.02451947E-01   1.73507504E-12   9.80275339E-14
   4.90287616E-02  -4.90287616E-02   9.89316982E-14
   1.41864017E-12  -8.78589564E-02   9.83524364E-14
   8.78589564E-02   1.45169045E-12   9.92750736E-14
   4.90287616E-02   4.90287616E-02   9.88497340E-14
  -1.28969833E-12   8.78589564E-02   9.84147363E-14
  -4.90287616E-02   4.90287616E-02   9.91643527E-14
  -8.78589564E-02  -1.25652081E-12   9.80570703E-14
  -4.90287616E-02  -4.90287616E-02   9.80893697E-14
   2.62508267E-02  -2.24613752E-12   9.79402899E-14
   3.06940359E-02   9.52870381E-12   9.74381683E-14
  -3.06940359E-02  -9.33269457E-12   9.63715972E-14
  -2.62508267E-02   2.43852901E-12   9.74006461E-14
   2.40635305E-12   2.62508267E-02   9.76505999E-14
  -9.36551735E-12   3.06940359E-02   9.54790388E-14
   9.49653547E-12  -3.06940359E-02   9.48983664E-14
  -2.27700026E-12  -2.62508267E-02   9.84447395E-14
  -2.62508267E-02   2.43901881E-12   9.72303259E-14
  -3.06940359E-02  -9.33335687E-12   9.51847803E-14
   3.06940359E-02   9.52845859E-12   9.60755827E-14
   2.62508267E-02  -2.24605806E-12   9.74240517E-14
  -2.27768288E-12  -2.62508267E-02   9.82977299E-14
   9.49665400E-12  -3.06940359E-02   9.43771646E-14
  -9.36567725E-12   3.06940359E-02   9.48779692E-14
   2.40643167E-12   2.62508267E-02   9.69750830E-14
   2.66684815E-02  -9.90116899E-02   9.89358018E-14
   5.14679411E-02  -8.88846868E-02   9.93324255E-14
   8.88846869E-02  -5.14679409E-02   9.85065519E-14
   9.90116900E-02  -2.66684813E-02   9.77820643E-14
   9.90116899E-02   2.66684815E-02   9.97740989E-14
   8.88846868E-02   5.14679411E-02   9.94853564E-14
   5.14679409E-02   8.88846869E-02   9.82580962E-14
   2.66684813E-02   9.90116900E-02   9.87030852E-14
  -2.66684815E-02   9.90116899E-02   9.85795791E-14
  -5.14679411E-02   8.88846868E-02   9.76894899E-14
  -8.88846869E-02   5.14679409E-02   9.79053933E-14
  -9.90116900E-02   2.66684813E-02   9.92019575E-14
  -9.90116899E-02  -2.66684815E-02   9.85747036E-14
  -8.88846868E-02  -5.14679411E-02   9.76928180E-14
  -5.14679409E-02  -8.88846869E-02   9.92093223E-14
  -2.66684813E-02  -9.90116900E-02   9.84059314E-14
   1.10168430E-02  -1.10168430E-02   7.07215293E-14
   2.46530094E-02  -2.46530094E-02   8.90194049E-14
   4.34818436E-02  -4.34818436E-02   9.55898695E-14
   1.10168430E-02   1.10168430E-02   7.16527198E-14
   2.46530094E-02   2.46530094E-02   8.72877262E-14
   4.34818436E-02   4.34818436E-02   9.54009393E-14
  -1.10168430E-02   1.10168430E-02   7.08762344E-14
  -2.46530094E-02   2.46530094E-02   8.81341359E-14
  -4.34818436E-02   4.34818436E-02   9.74119704E-14
  -1.10168430E-02  -1.10168430E-02   6.91452283E-14
  -2.46530094E-02  -2.46530094E-02   8.87032007E-14
  -4.34818436E-02  -4.34818436E-02   9.46581200E-14
   4.14066952E-12  -2.44038439E-02   9.91110193E-14
   7.22647994E-12  -4.94168387E-02   9.74873409E-14
   8.65931353E-12  -7.54370509E-02   9.89953146E-14
   2.44038439E-02   4.17126389E-12   9.63378235E-14
   4.94168387E-02   7.25744999E-12   9.83639252E-14
   7.54370509E-02   8.69079479E-12   9.78482449E-14
  -4.01559423E-12   2.44038439E-02   9.88568574E-14
  -7.10053071E-12   4.94168387E-02   9.74952731E-14
  -8.53192295E-12   7.54370509E-02   1.00535489E-13
  -2.44038439E-02  -3.98473399E-12   9.83333203E-14
  -4.94168387E-02  -7.06948728E-12   9.87723394E-14
  -7.54370509E-02  -8.50060930E-12   9.62324151E-14
   1.73424038E-02  -7.61648199E-02   9.80089606E-14
   3.37163645E-02  -6.32010939E-02   9.75500765E-14
   6.32010939E-02  -3.37163644E-02   9.80322348E-14
   7.61648200E-02  -1.73424036E-02   9.92956687E-14
   7.61648199E-02   1.73424038E-02   9.89220182E-14
   6.32010939E-02   3.37163645E-02   9.85944400E-14
   3.37163644E-02   6.32010939E-02   9.95616375E-14
   1.73424036E-02   7.61648200E-02   9.86048751E-14
  -1.73424038E-02   7.61648199E-02   9.79098643E-14
  -3.37163645E-02   6.32010939E-02   9.87970551E-14
  -6.32010939E-02   3.37163644E-02   9.70253355E-14
  -7.61648200E-02   1.73424036E-02   9.85265518E-14
  -7.61648199E-02  -1.73424038E-02   9.78401112E-14
  -6.32010939E-02  -3.37163645E-02   9.87573304E-14
  -3.37163644E-02  -6.32010939E-02   9.97940820E-14
  -1.73424036E-02  -7.61648200E-02   9.97774676E-14
   1.63322750E-02  -1.63322750E-02   9.83192457E-14
   3.26725557E-02  -3.26725557E-02   9.82102587E-14
   1.63322750E-02   1.63322750E-02   9.77450212E-14
   3.26725557E-02   3.26725557E-02   9.79379552E-14
  -1.63322750E-02   1.63322750E-02   9.75186502E-14
  -3.26725557E-02   3.26725557E-02   9.92776436E-14
  -1.63322750E-02  -1.63322750E-02   9.82270909E-14
  -3.26725557E-02  -3.26725557E-02   9.84937118E-14
   3.06940359E-02   9.52893015E-12   9.34239708E-14
   2.62508267E-02  -2.24501297E-12   9.85545331E-14
   1.10168430E-02  -1.10168430E-02   6.99943979E-14
   2.46530094E-02  -2.46530094E-02   8.69096903E-14
   4.34818436E-02  -4.34818436E-02   9.34218580E-14
   5.14679411E-02  -8.88846868E-02   9.71245678E-14
   2.66684815E-02  -9.90116899E-02   9.76319907E-14
   8.65916286E-12  -7.54370509E-02   9.71653006E-14
   7.22616620E-12  -4.94168387E-02   9.81574493E-14
   4.14055997E-12  -2.44038439E-02   9.66903606E-14
   6.33518094E-14   9.71061567E-14   9.76170072E-14
   6.41084371E-14   9.70745094E-14   9.70225827E-14
   6.47458532E-14   9.73611055E-14   9.65842086E-14
   6.43673249E-14   9.81366682E-14   9.69020280E-14
   6.32304857E-14   9.80725255E-14   9.67307905E-14
   6.51436140E-14   9.79927848E-14   7.49675220E-14
   6.34910642E-14   9.54482648E-14   8.77244123E-14
   6.51216440E-14   9.77088089E-14   8.98669794E-14
   6.43657278E-14   9.57635174E-14   8.76071279E-14
   6.56379738E-14   9.83250656E-14   7.51590769E-14
   7.26908942E-02  -7.26908942E-02   9.83168959E-14
   7.26908942E-02  -7.26908942E-02   9.82350427E-14
   7.26908942E-02  -7.26908942E-02   9.81096498E-14
   7.26908942E-02  -7.26908942E-02   9.81438520E-14
   7.26908942E-02  -7.26908942E-02   9.81819958E-14
   1.70199324E-12  -1.02451947E-01   9.85300794E-14
   1.70210806E-12  -1.02451947E-01   9.83869073E-14
   1.70248991E-12  -1.02451947E-01   9.81878723E-14
   1.70238030E-12  -1.02451947E-01   9.81412446E-14
   1.70207442E-12  -1.02451947E-01   9.80319445E-14
  -2.62508267E-02   2.43782250E-12   9.88890050E-14
  -3.06940359E-02  -9.33120201E-12   9.34608582E-14
  -2.66684813E-02  -9.90116900E-02   9.85334503E-14
  -5.14679409E-02  -8.88846869E-02   9.76061198E-14
  -4.34818436E-02  -4.34818436E-02   9.47097868E-14
  -2.46530094E-02  -2.46530094E-02   8.75037292E-14
  -1.10168430E-02  -1.10168430E-02   7.17296951E-14
   6.57987233E-14   9.68736476E-14   7.58498075E-14
   6.49354839E-14   9.45792734E-14   8.78679043E-14
   6.66407184E-14   9.76436629E-14   9.01160354E-14
   6.40049939E-14   9.46428252E-14   8.77827884E-14
   6.53176978E-14   9.79585165E-14   7.51506136E-14
  -7.26908942E-02  -7.26908942E-02   9.85794120E-14
  -7.26908942E-02  -7.26908942E-02   9.84009103E-14
  -7.26908942E-02  -7.26908942E-02   9.82946328E-14
  -7.26908942E-02  -7.26908942E-02   9.82951495E-14
  -7.26908942E-02  -7.26908942E-02   9.83702745E-14
   9.49614464E-12  -3.06940359E-02   9.60110481E-14
  -2.27732316E-12  -2.62508267E-02   9.66959014E-14
  -8.88846868E-02  -5.14679411E-02   9.93322824E-14
  -9.90116899E-02  -2.66684815E-02   9.86059673E-14
  -7.54370509E-02  -8.49965307E-12   1.00832357E-13
  -4.94168387E-02  -7.06872885E-12   9.77825010E-14
  -2.44038439E-02  -3.98435260E-12   9.82247576E-14
   6.52014115E-14   9.35600673E-14   9.73204623E-14
   6.51772054E-14   9.49737175E-14   9.75158832E-14
   6.49152675E-14   9.55113450E-14   9.73873839E-14
   6.47942115E-14   9.51063090E-14   9.77838465E-14
   6.47881299E-14   9.39191566E-14   9.78667702E-14
  -1.02451947E-01  -1.54036640E-12   9.83993954E-14
  -1.02451947E-01  -1.54026945E-12   9.82578326E-14
  -1.02451947E-01  -1.54013190E-12   9.85269745E-14
  -1.02451947E-01  -1.54014546E-12   9.87559962E-14
  -1.02451947E-01  -1.54007410E-12   9.87529294E-14
   2.40514336E-12   2.62508267E-02   9.88322317E-14
  -9.36527820E-12   3.06940359E-02   9.59195289E-14
  -9.90116900E-02   2.66684813E-02   9.80720776E-14
  -8.88846869E-02   5.14679409E-02   9.91878067E-14
  -4.34818436E-02   4.34818436E-02   9.27211050E-14
  -2.46530094E-02   2.46530094E-02   8.90959388E-14
  -1.10168430E-02   1.10168430E-02   7.14853925E-14
   6.42465384E-14   9.66239258E-14   7.60293435E-14
   6.30209285E-14   9.41912462E-14   8.85658571E-14
   6.48713155E-14   9.81685591E-14   9.09547827E-14
   6.28469070E-14   9.56163661E-14   8.86151601E-14
   6.43636490E-14   9.72621408E-14   7.59706344E-14
  -7.26908942E-02   7.26908942E-02   9.80562058E-14
  -7.26908942E-02   7.26908942E-02   9.84420916E-14
  -7.26908942E-02   7.26908942E-02   9.85419596E-14
  -7.26908942E-02   7.26908942E-02   9.86416794E-14
  -7.26908942E-02   7.26908942E-02   9.88935838E-14
  -3.06940359E-02  -9.33347355E-12   9.54918867E-14
  -2.62508267E-02   2.43779426E-12   9.69469465E-14
  -5.14679411E-02   8.88846868E-02   9.92314434E-14
  -2.66684815E-02   9.90116899E-02   9.86239574E-14
  -8.53239503E-12   7.54370509E-02   9.60892859E-14
  -7.10087498E-12   4.94168387E-02   9.90161971E-14
  -4.01646097E-12   2.44038439E-02   9.76693791E-14
   6.24101362E-14   9.77860479E-14   9.81617178E-14
   6.31455377E-14   9.76806874E-14   9.82109343E-14
   6.32460496E-14   9.73917608E-14   9.74625164E-14
   6.29712794E-14   9.69297603E-14   9.79007829E-14
   6.21982986E-14   9.82626236E-14   9.75835020E-14
  -1.57243310E-12   1.02451947E-01   9.84768495E-14
  -1.57221912E-12   1.02451947E-01   9.85969014E-14
  -1.57222317E-12   1.02451947E-01   9.84746634E-14
  -1.57255087E-12   1.02451947E-01   9.84851456E-14
  -1.57289016E-12   1.02451947E-01   9.86711504E-14
   2.62508267E-02  -2.24471785E-12   9.55283120E-14
   3.06940359E-02   9.53087308E-12   9.48460972E-14
   2.66684813E-02   9.90116900E-02   9.81870114E-14
   5.14679409E-02   8.88846869E-02   9.85326298E-14
   4.34818436E-02   4.34818436E-02   9.41476270E-14
   2.46530094E-02   2.46530094E-02   8.92243678E-14
   1.10168430E-02   1.10168430E-02   6.95330326E-14
   6.46548817E-14   9.80328096E-14   7.59477067E-14
   6.25411301E-14   9.56624897E-14   8.86207265E-14
   6.40803830E-14   9.83205852E-14   9.08209883E-14
   6.33979345E-14   9.61737661E-14   8.85440035E-14
   6.39497248E-14   9.88494282E-14   7.57840071E-14
   7.26908942E-02   7.26908942E-02   9.84992041E-14
   7.26908942E-02   7.26908942E-02   9.84930122E-14
   7.26908942E-02   7.26908942E-02   9.83417920E-14
   7.26908942E-02   7.26908942E-02   9.82478423E-14
   7.26908942E-02   7.26908942E-02   9.82013161E-14
  -9.36578815E-12   3.06940359E-02   9.57058468E-14
   2.40602937E-12   2.62508267E-02   9.71707226E-14
   8.88846868E-02   5.14679411E-02   9.71596742E-14
   9.90116899E-02   2.66684815E-02   9.67896431E-14
   7.54370509E-02   8.69164387E-12   9.81424641E-14
   4.94168387E-02   7.25820234E-12   9.73618809E-14
   2.44038439E-02   4.17231613E-12   9.90662343E-14
   6.51350246E-14   9.44517092E-14   9.70494625E-14
   6.47131372E-14   9.59158514E-14   9.73873625E-14
   6.54423246E-14   9.65685113E-14   9.69527429E-14
   6.45246999E-14   9.61219905E-14   9.74146335E-14
   6.51428840E-14   9.52862179E-14   9.77940887E-14
   1.02451947E-01   1.73442705E-12   9.82848877E-14
   1.02451947E-01   1.73445908E-12   9.83781628E-14
   1.02451947E-01   1.73473854E-12   9.84036886E-14
   1.02451947E-01   1.73492004E-12   9.81709198E-14
   1.02451947E-01   1.73510089E-12   9.80689292E-14
  -2.27785917E-12  -2.62508267E-02   9.65709320E-14
   9.49633703E-12  -3.06940359E-02   9.62760786E-14
   9.90116900E-02  -2.66684813E-02   9.87422210E-14
   8.88846869E-02  -5.14679409E-02   9.82380191E-14
   3.37163645E-02  -6.32010939E-02   9.91478612E-14
   1.73424038E-02  -7.61648199E-02   9.86538707E-14
   4.90287616E-02  -4.90287616E-02   9.83627449E-14
   4.90287616E-02  -4.90287616E-02   9.83362417E-14
   4.90287616E-02  -4.90287616E-02   9.82435365E-14
   4.90287616E-02  -4.90287616E-02   9.81565772E-14
   4.90287616E-02  -4.90287616E-02   9.82591460E-14
   1.41861179E-12  -8.78589564E-02   9.85588110E-14
   1.41869964E-12  -8.78589564E-02   9.84049479E-14
   1.41907350E-12  -8.78589564E-02   9.82690457E-14
   1.41902305E-12  -8.78589564E-02   9.81713385E-14
   1.41874199E-12  -8.78589564E-02   9.80815339E-14
   7.61648200E-02  -1.73424036E-02   9.72761871E-14
   6.32010939E-02  -3.37163644E-02   9.83822578E-14
   8.78589564E-02   1.45104110E-12   9.86881376E-14
   8.78589564E-02   1.45110708E-12   9.83219122E-14
   8.78589564E-02   1.45129086E-12   9.83381837E-14
   8.78589564E-02   1.45155467E-12   9.82657809E-14
   8.78589564E-02   1.45169808E-12   9.78267143E-14
   6.32010939E-02   3.37163645E-02   9.81893694E-14
   7.61648199E-02   1.73424038E-02   9.77458790E-14
   4.90287616E-02   4.90287616E-02   9.85550801E-14
   4.90287616E-02   4.90287616E-02   9.84358517E-14
   4.90287616E-02   4.90287616E-02   9.83224307E-14
   4.90287616E-02   4.90287616E-02   9.82714443E-14
   4.90287616E-02   4.90287616E-02   9.83084468E-14
   1.73424036E-02   7.61648200E-02   9.84695745E-14
   3.37163644E-02   6.32010939E-02   9.73514305E-14
  -1.28905891E-12   8.78589564E-02   9.84826481E-14
  -1.28881614E-12   8.78589564E-02   9.84636839E-14
  -1.28887679E-12   8.78589564E-02   9.84843973E-14
  -1.28913333E-12   8.78589564E-02   9.84739428E-14
  -1.28947932E-12   8.78589564E-02   9.85220091E-14
  -3.37163645E-02   6.32010939E-02   9.83080063E-14
  -1.73424038E-02   7.61648199E-02   9.92847072E-14
  -4.90287616E-02   4.90287616E-02   9.83111438E-14
  -4.90287616E-02   4.90287616E-02   9.83610381E-14
  -4.90287616E-02   4.90287616E-02   9.84777684E-14
  -4.90287616E-02   4.90287616E-02   9.85649610E-14
  -4.90287616E-02   4.90287616E-02   9.87042888E-14
  -7.61648200E-02   1.73424036E-02   9.85870861E-14
  -6.32010939E-02   3.37163644E-02   9.99003734E-14
  -8.78589564E-02  -1.25697771E-12   9.82285851E-14
  -8.78589564E-02  -1.25686875E-12   9.83227789E-14
  -8.78589564E-02  -1.25673200E-12   9.84723710E-14
  -8.78589564E-02  -1.25667438E-12   9.86703069E-14
  -8.78589564E-02  -1.25660457E-12   9.89657202E-14
  -6.32010939E-02  -3.37163645E-02   9.83822876E-14
  -7.61648199E-02  -1.73424038E-02   9.92865852E-14
  -4.90287616E-02  -4.90287616E-02   9.86401476E-14
  -4.90287616E-02  -4.90287616E-02   9.84662366E-14
  -4.90287616E-02  -4.90287616E-02   9.83796646E-14
  -4.90287616E-02  -4.90287616E-02   9.83593780E-14
  -4.90287616E-02  -4.90287616E-02   9.83583913E-14
  -1.73424036E-02  -7.61648200E-02   9.74899071E-14
  -3.37163644E-02  -6.32010939E-02   9.75022995E-14
   1.63322750E-02  -1.63322750E-02   9.84603035E-14
   3.26725557E-02  -3.26725557E-02   9.82586667E-14
   3.26725557E-02   3.26725557E-02   9.90188524E-14
   1.63322750E-02   1.63322750E-02   9.90343704E-14
   6.48457386E-14   9.69778311E-14   9.83014252E-14
   6.49436489E-14   9.72376268E-14   9.84578753E-14
   6.49974190E-14   9.73641291E-14   9.83695999E-14
   6.48830832E-14   9.75287200E-14   9.83798977E-14
   6.47451138E-14   9.75245151E-14   9.85264444E-14
  -3.26725557E-02   3.26725557E-02   9.79407443E-14
  -1.63322750E-02   1.63322750E-02   9.93749594E-14
  -3.26725557E-02  -3.26725557E-02   9.87436221E-14
  -1.63322750E-02  -1.63322750E-02   9.86747237E-14
   2.94424406E-02  -2.00903447E-02   9.64949713E-14
   2.93005067E-02  -4.27803783E-02   9.68898258E-14
   2.90235403E-02  -6.88139377E-02   9.66732178E-14
   3.07604596E-02  -1.34112574E-02   9.27430424E-14
   3.66373126E-02  -3.12202910E-02   9.49517540E-14
   4.41206988E-02  -5.50114678E-02   9.58078896E-14
  -3.07604596E-02  -1.34112574E-02   9.24096708E-14
  -3.66373126E-02  -3.12202910E-02   9.46290210E-14
  -4.41206987E-02  -5.50114678E-02   9.56592304E-14
  -2.94424406E-02  -2.00903447E-02   9.65873570E-14
  -2.93005067E-02  -4.27803783E-02   9.76322757E-14
  -2.90235402E-02  -6.88139377E-02   9.80639110E-14
  -2.00903447E-02  -2.94424406E-02   9.67648880E-14
  -4.27803783E-02  -2.93005067E-02   9.84690527E-14
  -6.88139377E-02  -2.90235403E-02   9.68263298E-14
  -1.34112574E-02  -3.07604596E-02   9.47407319E-14
  -3.12202910E-02  -3.66373126E-02   9.46070003E-14
  -5.50114678E-02  -4.41206988E-02   9.57503620E-14
  -1.34112574E-02   3.07604596E-02   9.46412238E-14
  -3.12202910E-02   3.66373126E-02   9.54888443E-14
  -5.50114678E-02   4.41206987E-02   9.69082927E-14
  -2.00903447E-02   2.94424406E-02   9.61711626E-14
  -4.27803783E-02   2.93005067E-02   9.85676773E-14
  -6.88139377E-02   2.90235402E-02   9.74978019E-14
  -2.94424406E-02   2.00903447E-02   9.58148206E-14
  -2.93005067E-02   4.27803783E-02   9.76296119E-14
  -2.90235403E-02   6.88139377E-02   9.85310247E-14
  -3.07604596E-02   1.34112574E-02   9.41760209E-14
  -3.66373126E-02   3.12202910E-02   9.52868135E-14
  -4.41206988E-02   5.50114678E-02   9.70492043E-14
   3.07604596E-02   1.34112574E-02   9.51677740E-14
   3.66373126E-02   3.12202910E-02   9.53019818E-14
   4.41206987E-02   5.50114678E-02   9.60035194E-14
   2.94424406E-02   2.00903447E-02   9.72496861E-14
   2.93005067E-02   4.27803783E-02   9.86899813E-14
   2.90235402E-02   6.88139377E-02   9.90926048E-14
   2.00903447E-02   2.94424406E-02   9.63897577E-14
   4.27803783E-02   2.93005067E-02   9.63702673E-14
   6.88139377E-02   2.90235403E-02   9.75787020E-14
   1.34112574E-02   3.07604596E-02   9.24313569E-14
   3.12202910E-02   3.66373126E-02   9.39554398E-14
   5.50114678E-02   4.41206988E-02   9.57240730E-14
   1.34112574E-02  -3.07604596E-02   9.30239449E-14
   3.12202910E-02  -3.66373126E-02   9.30586960E-14
   5.50114678E-02  -4.41206987E-02   9.74385908E-14
   2.00903447E-02  -2.94424406E-02   9.70440203E-14
   4.27803783E-02  -2.93005067E-02   9.70197153E-14