<?xml version="1.0"?>
<VTKFile type="UnstructuredGrid" version="0.1">
  <UnstructuredGrid>
    <Piece NumberOfPoints="1183" NumberOfCells="936">
      <Points>
        <DataArray type="Float64" NumberOfComponents="3" format="ascii">
  -5.00000000E-01  -5.00000000E-01   0.00000000E+00
   5.00000000E-01  -5.00000000E-01   0.00000000E+00
   5.00000000E-01   5.00000000E-01   0.00000000E+00
  -5.00000000E-01   5.00000000E-01   0.00000000E+00
   0.00000000E+00   0.00000000E+00   0.00000000E+00
   0.00000000E+00   3.50000000E-01   0.00000000E+00
  -3.50000000E-01   0.00000000E+00   0.00000000E+00
   0.00000000E+00  -3.50000000E-01   0.00000000E+00
   3.50000000E-01   0.00000000E+00   0.00000000E+00
   2.47487373E-01   2.47487373E-01   0.00000000E+00
  -2.47487373E-01   2.47487373E-01   0.00000000E+00
  -2.47487373E-01  -2.47487373E-01   0.00000000E+00
   2.47487373E-01  -2.47487373E-01   0.00000000E+00
   0.00000000E+00   3.00000000E-01   0.00000000E+00
  -3.00000000E-01   0.00000000E+00   0.00000000E+00
   0.00000000E+00  -3.00000000E-01   0.00000000E+00
   3.00000000E-01   0.00000000E+00   0.00000000E+00
  -1.67083203E-01   1.67083203E-01   0.00000000E+00
  -1.67083203E-01  -1.67083203E-01   0.00000000E+00
   1.67083203E-01  -1.67083203E-01   0.00000000E+00
   1.67083203E-01   1.67083203E-01   0.00000000E+00
   0.00000000E+00  -5.00000000E-01   0.00000000E+00
   5.00000000E-01   0.00000000E+00   0.00000000E+00
   0.00000000E+00   5.00000000E-01   0.00000000E+00
  -5.00000000E-01   0.00000000E+00   0.00000000E+00
   0.00000000E+00   5.00000000E-01   1.00000000E+00
  -5.00000000E-01   5.00000000E-01   1.00000000E+00
  -2.47487373E-01   2.47487373E-01   1.00000000E+00
   0.00000000E+00   0.00000000E+00   1.00000000E+00
   0.00000000E+00   3.50000000E-01   1.00000000E+00
   5.00000000E-01   5.00000000E-01   1.00000000E+00
   2.47487373E-01   2.47487373E-01   1.00000000E+00
   5.00000000E-01   0.00000000E+00   1.00000000E+00
   3.50000000E-01   0.00000000E+00   1.00000000E+00
   5.00000000E-01  -5.00000000E-01   1.00000000E+00
   2.47487373E-01  -2.47487373E-01   1.00000000E+00
   0.00000000E+00  -5.00000000E-01   1.00000000E+00
   0.00000000E+00  -3.50000000E-01   1.00000000E+00
  -5.00000000E-01  -5.00000000E-01   1.00000000E+00
  -2.47487373E-01  -2.47487373E-01   1.00000000E+00
  -5.00000000E-01   0.00000000E+00   1.00000000E+00
  -3.50000000E-01   0.00000000E+00   1.00000000E+00
  -1.67083203E-01   1.67083203E-01   1.00000000E+00
   0.00000000E+00   3.00000000E-01   1.00000000E+00
  -3.00000000E-01   0.00000000E+00   1.00000000E+00
  -1.67083203E-01  -1.67083203E-01   1.00000000E+00
   0.00000000E+00  -3.00000000E-01   1.00000000E+00
   1.67083203E-01  -1.67083203E-01   1.00000000E+00
   3.00000000E-01   0.00000000E+00   1.00000000E+00
   1.67083203E-01   1.67083203E-01   1.00000000E+00
  -3.33333333E-01  -5.00000000E-01   0.00000000E+00
  -1.66666667E-01  -5.00000000E-01   0.00000000E+00
   1.66666667E-01  -5.00000000E-01   0.00000000E+00
   3.33333333E-01  -5.00000000E-01   0.00000000E+00
   5.00000000E-01  -3.33333333E-01   0.00000000E+00
   5.00000000E-01  -1.66666667E-01   0.00000000E+00
   5.00000000E-01   1.66666667E-01   0.00000000E+00
   5.00000000E-01   3.33333333E-01   0.00000000E+00
   3.33333333E-01   5.00000000E-01   0.00000000E+00
   1.66666667E-01   5.00000000E-01   0.00000000E+00
  -1.66666667E-01   5.00000000E-01   0.00000000E+00
  -3.33333333E-01   5.00000000E-01   0.00000000E+00
  -5.00000000E-01   3.33333333E-01   0.00000000E+00
  -5.00000000E-01   1.66666667E-01   0.00000000E+00
  -5.00000000E-01  -1.66666667E-01   0.00000000E+00
  -5.00000000E-01  -3.33333333E-01   0.00000000E+00
  -9.05866661E-02   3.38074039E-01   0.00000000E+00
  -1.75000000E-01   3.03108891E-01   0.00000000E+00
  -3.03108891E-01   1.75000000E-01   0.00000000E+00
  -3.38074039E-01   9.05866654E-02   0.00000000E+00
  -3.38074039E-01  -9.05866661E-02   0.00000000E+00
  -3.03108891E-01  -1.75000000E-01   0.00000000E+00
  -1.75000000E-01  -3.03108891E-01   0.00000000E+00
  -9.05866654E-02  -3.38074039E-01   0.00000000E+00
   9.05866661E-02  -3.38074039E-01   0.00000000E+00
   1.75000000E-01  -3.03108891E-01   0.00000000E+00
   3.03108891E-01  -1.75000000E-01   0.00000000E+00
   3.38074039E-01  -9.05866654E-02   0.00000000E+00
   3.38074039E-01   9.05866661E-02   0.00000000E+00
   3.03108891E-01   1.75000000E-01   0.00000000E+00
   1.75000000E-01   3.03108891E-01   0.00000000E+00
   9.05866654E-02   3.38074039E-01   0.00000000E+00
  -4.36871843E-01   4.36871843E-01   0.00000000E+00
  -3.73743687E-01   3.73743687E-01   0.00000000E+00
  -3.10615530E-01   3.10615530E-01   0.00000000E+00
  -4.36871843E-01  -4.36871843E-01   0.00000000E+00
  -3.73743687E-01  -3.73743687E-01   0.00000000E+00
  -3.10615530E-01  -3.10615530E-01   0.00000000E+00
   4.36871843E-01  -4.36871843E-01   0.00000000E+00
   3.73743687E-01  -3.73743687E-01   0.00000000E+00
   3.10615530E-01  -3.10615530E-01   0.00000000E+00
   4.36871843E-01   4.36871843E-01   0.00000000E+00
   3.73743687E-01   3.73743687E-01   0.00000000E+00
   3.10615530E-01   3.10615530E-01   0.00000000E+00
   0.00000000E+00   4.62500000E-01   0.00000000E+00
   0.00000000E+00   4.25000000E-01   0.00000000E+00
   0.00000000E+00   3.87500000E-01   0.00000000E+00
  -4.62500000E-01   0.00000000E+00   0.00000000E+00
  -4.25000000E-01   0.00000000E+00   0.00000000E+00
  -3.87500000E-01   0.00000000E+00   0.00000000E+00
   0.00000000E+00  -4.62500000E-01   0.00000000E+00
   0.00000000E+00  -4.25000000E-01   0.00000000E+00
   0.00000000E+00  -3.87500000E-01   0.00000000E+00
   4.62500000E-01   0.00000000E+00   0.00000000E+00
   4.25000000E-01   0.00000000E+00   0.00000000E+00
   3.87500000E-01   0.00000000E+00   0.00000000E+00
  -5.89939545E-02   2.59951156E-01   0.00000000E+00
  -1.14794611E-01   2.15561029E-01   0.00000000E+00
  -2.15561030E-01   1.14794610E-01   0.00000000E+00
  -2.59951156E-01   5.89939540E-02   0.00000000E+00
  -2.59951156E-01  -5.89939545E-02   0.00000000E+00
  -2.15561029E-01  -1.14794611E-01   0.00000000E+00
  -1.14794610E-01  -2.15561030E-01   0.00000000E+00
  -5.89939540E-02  -2.59951156E-01   0.00000000E+00
   5.89939545E-02  -2.59951156E-01   0.00000000E+00
   1.14794611E-01  -2.15561029E-01   0.00000000E+00
   2.15561030E-01  -1.14794610E-01   0.00000000E+00
   2.59951156E-01  -5.89939540E-02   0.00000000E+00
   2.59951156E-01   5.89939545E-02   0.00000000E+00
   2.15561029E-01   1.14794611E-01   0.00000000E+00
   1.14794610E-01   2.15561030E-01   0.00000000E+00
   5.89939540E-02   2.59951156E-01   0.00000000E+00
  -5.56944011E-02   5.56944011E-02   0.00000000E+00
  -1.11388802E-01   1.11388802E-01   0.00000000E+00
  -5.56944011E-02  -5.56944011E-02   0.00000000E+00
  -1.11388802E-01  -1.11388802E-01   0.00000000E+00
   5.56944011E-02  -5.56944011E-02   0.00000000E+00
   1.11388802E-01  -1.11388802E-01   0.00000000E+00
   5.56944011E-02   5.56944011E-02   0.00000000E+00
   1.11388802E-01   1.11388802E-01   0.00000000E+00
  -1.66666667E-01   5.00000000E-01   1.00000000E+00
  -3.33333333E-01   5.00000000E-01   1.00000000E+00
  -4.36871843E-01   4.36871843E-01   1.00000000E+00
  -3.73743687E-01   3.73743687E-01   1.00000000E+00
  -3.10615530E-01   3.10615530E-01   1.00000000E+00
  -1.75000000E-01   3.03108891E-01   1.00000000E+00
  -9.05866661E-02   3.38074039E-01   1.00000000E+00
   0.00000000E+00   3.87500000E-01   1.00000000E+00
   0.00000000E+00   4.25000000E-01   1.00000000E+00
   0.00000000E+00   4.62500000E-01   1.00000000E+00
   0.00000000E+00   5.00000000E-01   1.66666667E-01
   0.00000000E+00   5.00000000E-01   3.33333333E-01
   0.00000000E+00   5.00000000E-01   5.00000000E-01
   0.00000000E+00   5.00000000E-01   6.66666667E-01
   0.00000000E+00   5.00000000E-01   8.33333333E-01
  -5.00000000E-01   5.00000000E-01   1.66666667E-01
  -5.00000000E-01   5.00000000E-01   3.33333333E-01
  -5.00000000E-01   5.00000000E-01   5.00000000E-01
  -5.00000000E-01   5.00000000E-01   6.66666667E-01
  -5.00000000E-01   5.00000000E-01   8.33333333E-01
  -2.47487373E-01   2.47487373E-01   1.66666667E-01
  -2.47487373E-01   2.47487373E-01   3.33333333E-01
  -2.47487373E-01   2.47487373E-01   5.00000000E-01
  -2.47487373E-01   2.47487373E-01   6.66666667E-01
  -2.47487373E-01   2.47487373E-01   8.33333333E-01
   0.00000000E+00   3.50000000E-01   1.66666667E-01
   0.00000000E+00   3.50000000E-01   3.33333333E-01
   0.00000000E+00   3.50000000E-01   5.00000000E-01
   0.00000000E+00   3.50000000E-01   6.66666667E-01
   0.00000000E+00   3.50000000E-01   8.33333333E-01
   3.33333333E-01   5.00000000E-01   1.00000000E+00
   1.66666667E-01   5.00000000E-01   1.00000000E+00
   9.05866654E-02   3.38074039E-01   1.00000000E+00
   1.75000000E-01   3.03108891E-01   1.00000000E+00
   3.10615530E-01   3.10615530E-01   1.00000000E+00
   3.73743687E-01   3.73743687E-01   1.00000000E+00
   4.36871843E-01   4.36871843E-01   1.00000000E+00
   5.00000000E-01   5.00000000E-01   1.66666667E-01
   5.00000000E-01   5.00000000E-01   3.33333333E-01
   5.00000000E-01   5.00000000E-01   5.00000000E-01
   5.00000000E-01   5.00000000E-01   6.66666667E-01
   5.00000000E-01   5.00000000E-01   8.33333333E-01
   2.47487373E-01   2.47487373E-01   1.66666667E-01
   2.47487373E-01   2.47487373E-01   3.33333333E-01
   2.47487373E-01   2.47487373E-01   5.00000000E-01
   2.47487373E-01   2.47487373E-01   6.66666667E-01
   2.47487373E-01   2.47487373E-01   8.33333333E-01
   5.00000000E-01   1.66666667E-01   1.00000000E+00
   5.00000000E-01   3.33333333E-01   1.00000000E+00
   3.03108891E-01   1.75000000E-01   1.00000000E+00
   3.38074039E-01   9.05866661E-02   1.00000000E+00
   3.87500000E-01   0.00000000E+00   1.00000000E+00
   4.25000000E-01   0.00000000E+00   1.00000000E+00
   4.62500000E-01   0.00000000E+00   1.00000000E+00
   5.00000000E-01   0.00000000E+00   1.66666667E-01
   5.00000000E-01   0.00000000E+00   3.33333333E-01
   5.00000000E-01   0.00000000E+00   5.00000000E-01
[...]
      <PointData Vectors="Displacement">
        <DataArray type="Float64" Name="Displacement" NumberOfComponents="3" format="ascii">
  -1.88651076E-15   2.73916504E-17   3.34707321E-16
  -2.31091339E-15  -1.34263397E-15   1.37391375E-15
   1.47021522E-15  -2.22180732E-15   6.12316143E-16
   1.50209406E-15   2.43508097E-15   1.01702970E-16
  -5.19452149E-14   1.04750914E-13  -5.54625774E-14
   1.74505070E-12  -3.38853155E-01  -5.59096301E-14
   2.65333440E-03   3.77754064E-12  -5.56938671E-14
  -1.84926343E-12   3.38853155E-01  -5.60562206E-14
  -2.65333440E-03  -3.56823235E-12  -5.56510352E-14
  -1.57288798E-03  -2.40730093E-01  -5.57323648E-14
   1.57288799E-03  -2.40730093E-01  -5.59110416E-14
   1.57288798E-03   2.40730093E-01  -5.57958004E-14
  -1.57288799E-03   2.40730093E-01  -5.54299887E-14
   2.18785658E-12  -2.90499721E-01  -5.57173844E-14
   2.36346662E-03   2.38830357E-12  -5.58806579E-14
  -2.29185958E-12   2.90499721E-01  -5.56670855E-14
  -2.36346662E-03  -2.17921210E-12  -5.56228043E-14
   1.31062519E-03  -1.62118580E-01  -5.58982945E-14
   1.31062518E-03   1.62118580E-01  -5.57278287E-14
  -1.31062519E-03   1.62118580E-01  -5.56002021E-14
  -1.31062518E-03  -1.62118580E-01  -5.57143301E-14
  -5.16988604E-14   1.05605350E-13  -5.75119693E-14
  -5.19289006E-14   1.00049413E-13  -5.56209995E-14
  -5.03367458E-14   1.05675608E-13  -5.59183426E-14
  -5.21727157E-14   1.01695002E-13  -5.57717408E-14
  -4.89479629E-14   1.06551038E-13  -5.68594540E-14
   6.90363807E-16   8.00239180E-16   3.92481484E-16
   1.57288799E-03  -2.40730093E-01  -5.59808207E-14
  -5.22234366E-14   1.04847334E-13  -5.58786016E-14
   1.74498393E-12  -3.38853155E-01  -5.58900846E-14
   1.60992882E-15  -1.26185883E-15   2.68002093E-16
  -1.57288798E-03  -2.40730093E-01  -5.57641088E-14
  -5.20806423E-14   9.90244198E-14  -5.60302879E-14
  -2.65333440E-03  -3.56812833E-12  -5.56337630E-14
  -2.91792963E-15  -1.76141283E-15  -2.33788096E-16
  -1.57288799E-03   2.40730093E-01  -5.55077729E-14
  -4.95522001E-14   1.02423785E-13  -5.48751959E-14
  -1.84960059E-12   3.38853155E-01  -5.56921350E-14
  -1.36665710E-15   2.60552953E-15  -1.02357095E-15
   1.57288798E-03   2.40730093E-01  -5.57125411E-14
  -5.22277151E-14   1.01933227E-13  -5.56285091E-14
   2.65333440E-03   3.77756187E-12  -5.59632272E-14
   1.31062519E-03  -1.62118580E-01  -5.58394463E-14
   2.18764735E-12  -2.90499721E-01  -5.58093791E-14
   2.36346662E-03   2.38894037E-12  -5.57622414E-14
   1.31062518E-03   1.62118580E-01  -5.57426067E-14
  -2.29213304E-12   2.90499721E-01  -5.55629466E-14
  -1.31062519E-03   1.62118580E-01  -5.54809330E-14
  -2.36346662E-03  -2.17938227E-12  -5.56458863E-14
  -1.31062518E-03  -1.62118580E-01  -5.55594969E-14
   8.86851904E-02  -6.45936606E-12  -5.46521869E-14
   9.94713399E-02   2.19431730E-11  -5.25229434E-14
  -9.94713399E-02  -2.17296670E-11  -5.65564262E-14
  -8.86851904E-02   6.66682461E-12  -5.37792993E-14
   1.18759518E-12  -1.18243462E-03  -5.46571047E-14
  -9.65477229E-12   2.84211312E-03  -5.37233720E-14
   9.54922468E-12  -2.84211312E-03  -5.39557967E-14
  -1.29061571E-12   1.18243462E-03  -5.52668185E-14
  -8.86851904E-02   6.66840719E-12  -5.68815522E-14
  -9.94713399E-02  -2.17339038E-11  -5.51002798E-14
   9.94713399E-02   2.19424481E-11  -5.46006679E-14
   8.86851904E-02  -6.46171935E-12  -5.74391610E-14
  -1.29101086E-12   1.18243462E-03  -5.55210788E-14
   9.54905804E-12  -2.84211312E-03  -5.42656915E-14
  -9.65385600E-12   2.84211312E-03  -5.42843877E-14
   1.18774371E-12  -1.18243462E-03  -5.52870573E-14
   5.24453108E-04  -3.27589033E-01  -5.57573494E-14
   1.03238769E-03  -2.94259280E-01  -5.56738849E-14
   2.02300895E-03  -1.70527415E-01  -5.59210354E-14
   2.44993344E-03  -8.83704845E-02  -5.58767080E-14
   2.44993344E-03   8.83704852E-02  -5.56786424E-14
   2.02300894E-03   1.70527416E-01  -5.57048314E-14
   1.03238769E-03   2.94259281E-01  -5.57227409E-14
   5.24453099E-04   3.27589033E-01  -5.58467811E-14
  -5.24453108E-04   3.27589033E-01  -5.58450220E-14
  -1.03238769E-03   2.94259280E-01  -5.55363567E-14
  -2.02300895E-03   1.70527415E-01  -5.54157450E-14
  -2.44993344E-03   8.83704845E-02  -5.56939575E-14
  -2.44993344E-03  -8.83704852E-02  -5.55640660E-14
  -2.02300894E-03  -1.70527416E-01  -5.55881585E-14
  -1.03238769E-03  -2.94259281E-01  -5.58765781E-14
  -5.24453099E-04  -3.27589033E-01  -5.57193145E-14
   3.54287818E-02  -1.29402827E-03  -4.06478124E-14
   5.63065410E-02  -2.58701569E-02  -5.04472919E-14
   5.27820764E-02  -9.21574024E-02  -5.44183259E-14
   3.54287818E-02   1.29402827E-03  -4.03359061E-14
   5.63065410E-02   2.58701569E-02  -5.03652189E-14
   5.27820764E-02   9.21574024E-02  -5.40179402E-14
  -3.54287818E-02   1.29402827E-03  -3.94807562E-14
  -5.63065410E-02   2.58701569E-02  -4.95859195E-14
  -5.27820764E-02   9.21574024E-02  -5.35083854E-14
  -3.54287818E-02  -1.29402827E-03  -4.05519477E-14
  -5.63065410E-02  -2.58701569E-02  -5.00814953E-14
  -5.27820764E-02  -9.21574024E-02  -5.36184196E-14
   1.34560034E-11  -8.85789313E-02  -5.60531708E-14
   2.29399801E-11  -1.76207260E-01  -5.59412767E-14
   2.26379592E-11  -2.61237915E-01  -5.57131901E-14
  -7.23278501E-03   1.91519002E-13  -5.54689102E-14
  -1.14844646E-02   9.95756795E-13  -5.57787137E-14
  -9.78107886E-03   6.07507300E-12  -5.57200079E-14
  -1.35567835E-11   8.85789313E-02  -5.60747410E-14
  -2.30409104E-11   1.76207260E-01  -5.58297397E-14
  -2.27398647E-11   2.61237915E-01  -5.59287718E-14
   7.23278501E-03   1.01932565E-14  -5.54067680E-14
   1.14844646E-02  -7.92404231E-13  -5.57325427E-14
   9.78107886E-03  -5.86930237E-12  -5.55944357E-14
   4.23994714E-04  -2.51788669E-01  -5.56044972E-14
   8.78422600E-04  -2.08942209E-01  -5.59082135E-14
   1.72810366E-03  -1.11509459E-01  -5.59794287E-14
   2.09406381E-03  -5.73840174E-02  -5.59777258E-14
   2.09406380E-03   5.73840179E-02  -5.57854409E-14
   1.72810366E-03   1.11509459E-01  -5.59243273E-14
   8.78422594E-04   2.08942209E-01  -5.58313406E-14
   4.23994706E-04   2.51788670E-01  -5.56522059E-14
  -4.23994714E-04   2.51788669E-01  -5.52798055E-14
  -8.78422600E-04   2.08942209E-01  -5.54382643E-14
  -1.72810366E-03   1.11509459E-01  -5.55476109E-14
  -2.09406381E-03   5.73840174E-02  -5.56302962E-14
  -2.09406380E-03  -5.73840179E-02  -5.55043695E-14
  -1.72810366E-03  -1.11509459E-01  -5.56728708E-14
  -8.78422594E-04  -2.08942209E-01  -5.56942562E-14
  -4.23994706E-04  -2.51788670E-01  -5.59527791E-14
   4.96400858E-04  -5.39445158E-02  -5.58330331E-14
   9.49856131E-04  -1.07958663E-01  -5.59878403E-14
   4.96400857E-04   5.39445158E-02  -5.57022124E-14
   9.49856129E-04   1.07958663E-01  -5.56997949E-14
  -4.96400858E-04   5.39445158E-02  -5.57540816E-14
  -9.49856131E-04   1.07958663E-01  -5.56998625E-14
  -4.96400857E-04  -5.39445158E-02  -5.55994101E-14
  -9.49856129E-04  -1.07958663E-01  -5.56098695E-14
   9.94713399E-02   2.19410866E-11  -5.36961705E-14
   8.86851904E-02  -6.45662847E-12  -5.48691889E-14
   3.54287818E-02  -1.29402827E-03  -4.00591377E-14
   5.63065410E-02  -2.58701569E-02  -4.98771108E-14
   5.27820764E-02  -9.21574024E-02  -5.34602694E-14
   1.03238769E-03  -2.94259280E-01  -5.57145809E-14
   5.24453108E-04  -3.27589033E-01  -5.56324136E-14
   2.26374582E-11  -2.61237915E-01  -5.58982447E-14
   2.29395315E-11  -1.76207260E-01  -5.58060902E-14
   1.34563486E-11  -8.85789313E-02  -5.57106054E-14
  -4.88464805E-14   1.04418561E-13  -5.50481732E-14
  -4.97955627E-14   1.06068150E-13  -5.53857806E-14
  -4.93796604E-14   1.01932962E-13  -5.49185130E-14
  -4.94214684E-14   1.06607607E-13  -5.55636008E-14
  -4.90856483E-14   1.04009901E-13  -5.53946467E-14
  -5.07004702E-14   1.06782939E-13  -4.38021350E-14
  -5.04781255E-14   1.04778305E-13  -5.04344512E-14
  -5.12822059E-14   1.04438450E-13  -5.17620248E-14
  -4.97140521E-14   1.04454220E-13  -5.02678897E-14
  -4.97512052E-14   1.07172341E-13  -4.32450288E-14
   1.57288799E-03  -2.40730093E-01  -5.59352301E-14
   1.57288799E-03  -2.40730093E-01  -5.57583417E-14
   1.57288799E-03  -2.40730093E-01  -5.56539044E-14
   1.57288799E-03  -2.40730093E-01  -5.57453784E-14
   1.57288799E-03  -2.40730093E-01  -5.58436271E-14
   1.74519756E-12  -3.38853155E-01  -5.57940497E-14
   1.74511704E-12  -3.38853155E-01  -5.57404776E-14
   1.74504366E-12  -3.38853155E-01  -5.56785958E-14
   1.74509566E-12  -3.38853155E-01  -5.54333682E-14
   1.74517388E-12  -3.38853155E-01  -5.58264583E-14
  -8.86851904E-02   6.66805858E-12  -5.53346274E-14
  -9.94713399E-02  -2.17302867E-11  -5.37674406E-14
  -5.24453099E-04  -3.27589033E-01  -5.59989780E-14
  -1.03238769E-03  -2.94259281E-01  -5.57003235E-14
  -5.27820764E-02  -9.21574024E-02  -5.39468945E-14
  -5.63065410E-02  -2.58701569E-02  -5.00191504E-14
  -3.54287818E-02  -1.29402827E-03  -3.96590968E-14
  -4.98642664E-14   1.05800758E-13  -4.26959288E-14
  -4.86507252E-14   1.00287187E-13  -4.97449968E-14
  -4.95524069E-14   1.01657141E-13  -5.09864427E-14
  -4.91037068E-14   1.00593521E-13  -4.99869039E-14
  -5.00284331E-14   1.03952016E-13  -4.28034371E-14
  -1.57288798E-03  -2.40730093E-01  -5.57556827E-14
  -1.57288798E-03  -2.40730093E-01  -5.55982351E-14
  -1.57288798E-03  -2.40730093E-01  -5.55496770E-14
  -1.57288798E-03  -2.40730093E-01  -5.55745271E-14
  -1.57288798E-03  -2.40730093E-01  -5.56714122E-14
   9.54921160E-12  -2.84211312E-03  -5.38127020E-14
  -1.29058931E-12   1.18243462E-03  -5.50287607E-14
  -2.02300894E-03  -1.70527416E-01  -5.55899923E-14
  -2.44993344E-03  -8.83704852E-02  -5.55796295E-14
   9.78107886E-03  -5.86915076E-12  -5.54250557E-14
   1.14844646E-02  -7.92405439E-13  -5.52348042E-14
   7.23278501E-03   9.61346260E-15  -5.56274012E-14
  -5.24532744E-14   1.00199394E-13  -5.51354608E-14
  -5.20202470E-14   1.01663555E-13  -5.52055325E-14
  -5.22576164E-14   1.01665459E-13  -5.47641698E-14
  -5.20048320E-14   1.01361911E-13  -5.50449647E-14
  -5.23140762E-14   9.99985730E-14  -5.50496760E-14
  -2.65333440E-03  -3.56798305E-12  -5.56233201E-14
  -2.65333440E-03  -3.56786007E-12  -5.56938427E-14
  -2.65333440E-03  -3.56801394E-12  -5.56360937E-14
  -2.65333440E-03  -3.56822715E-12  -5.55532207E-14
  -2.65333440E-03  -3.56827139E-12  -5.55630197E-14
   1.18582651E-12  -1.18243462E-03  -5.45857980E-14
  -9.65435308E-12   2.84211312E-03  -5.41927845E-14
  -2.44993344E-03   8.83704845E-02  -5.55972730E-14
  -2.02300895E-03   1.70527415E-01  -5.55998477E-14
  -5.27820764E-02   9.21574024E-02  -5.33104413E-14
  -5.63065410E-02   2.58701569E-02  -4.97350670E-14
  -3.54287818E-02   1.29402827E-03  -3.97474179E-14
  -5.44018398E-14   1.02537653E-13  -4.24612872E-14
  -5.19724580E-14   1.00431552E-13  -4.96952150E-14
  -5.42911430E-14   1.06730967E-13  -5.08547277E-14
  -5.27813398E-14   1.02472630E-13  -4.97934931E-14
  -5.41076258E-14   1.03247933E-13  -4.28227240E-14
  -1.57288799E-03   2.40730093E-01  -5.56533588E-14
  -1.57288799E-03   2.40730093E-01  -5.56471868E-14
  -1.57288799E-03   2.40730093E-01  -5.56012762E-14
  -1.57288799E-03   2.40730093E-01  -5.56531072E-14
  -1.57288799E-03   2.40730093E-01  -5.56005944E-14
  -9.94713399E-02  -2.17330900E-11  -5.41004990E-14
  -8.86851904E-02   6.66569100E-12  -5.50045560E-14
  -1.03238769E-03   2.94259280E-01  -5.53743309E-14
  -5.24453108E-04   3.27589033E-01  -5.52858786E-14
  -2.27401100E-11   2.61237915E-01  -5.57371874E-14
  -2.30401376E-11   1.76207260E-01  -5.54842996E-14
  -1.35558660E-11   8.85789313E-02  -5.52630953E-14
  -5.19488429E-14   1.05473013E-13  -5.55343290E-14
  -5.31054955E-14   1.04726844E-13  -5.47600475E-14
  -5.32503299E-14   1.06678610E-13  -5.48085384E-14
  -5.28635269E-14   1.03321000E-13  -5.52297495E-14
  -5.25423140E-14   1.06684176E-13  -5.55671333E-14
  -1.84947565E-12   3.38853155E-01  -5.56519727E-14
  -1.84950662E-12   3.38853155E-01  -5.55275674E-14
  -1.84937442E-12   3.38853155E-01  -5.55723636E-14
  -1.84967086E-12   3.38853155E-01  -5.57038651E-14
  -1.84912960E-12   3.38853155E-01  -5.58282826E-14
   8.86851904E-02  -6.46153802E-12  -5.65974179E-14
   9.94713399E-02   2.19462885E-11  -5.44411126E-14
   5.24453099E-04   3.27589033E-01  -5.55312273E-14
   1.03238769E-03   2.94259281E-01  -5.57989766E-14
   5.27820764E-02   9.21574024E-02  -5.37420569E-14
   5.63065410E-02   2.58701569E-02  -5.00376362E-14
   3.54287818E-02   1.29402827E-03  -4.04765802E-14
  -5.30965921E-14   1.05285538E-13  -4.30546469E-14
  -5.25733144E-14   1.05124552E-13  -4.97362980E-14
  -5.40186631E-14   1.08066047E-13  -5.11027498E-14
  -5.22551804E-14   1.05376860E-13  -5.00501778E-14
  -5.46845694E-14   1.05189152E-13  -4.31685385E-14
   1.57288798E-03   2.40730093E-01  -5.58992332E-14
   1.57288798E-03   2.40730093E-01  -5.57701857E-14
   1.57288798E-03   2.40730093E-01  -5.56774000E-14
   1.57288798E-03   2.40730093E-01  -5.57780221E-14
   1.57288798E-03   2.40730093E-01  -5.57485826E-14
  -9.65404589E-12   2.84211312E-03  -5.41356605E-14
   1.18719249E-12  -1.18243462E-03  -5.53008239E-14
   2.02300894E-03   1.70527416E-01  -5.58877622E-14
   2.44993344E-03   8.83704852E-02  -5.61287012E-14
  -9.78107886E-03   6.07492933E-12  -5.56903171E-14
  -1.14844646E-02   9.95637432E-13  -5.55059956E-14
  -7.23278501E-03   1.91977742E-13  -5.57255985E-14
  -5.23411331E-14   1.03073298E-13  -5.53781220E-14
  -5.22039495E-14   1.04353473E-13  -5.53477560E-14
  -5.19406838E-14   1.05196237E-13  -5.51768510E-14
  -5.23985137E-14   1.04333064E-13  -5.53213454E-14
  -5.25074767E-14   1.03232658E-13  -5.52459215E-14
   2.65333440E-03   3.77761080E-12  -5.59194208E-14
   2.65333440E-03   3.77778568E-12  -5.58338932E-14
   2.65333440E-03   3.77742555E-12  -5.57478712E-14
   2.65333440E-03   3.77769350E-12  -5.57679033E-14
   2.65333440E-03   3.77770534E-12  -5.58726735E-14
  -1.29054255E-12   1.18243462E-03  -5.50867622E-14
   9.54888438E-12  -2.84211312E-03  -5.42568209E-14
   2.44993344E-03  -8.83704845E-02  -5.58294025E-14
   2.02300895E-03  -1.70527415E-01  -5.58926731E-14
   8.78422600E-04  -2.08942209E-01  -5.58636321E-14
   4.23994714E-04  -2.51788669E-01  -5.57432273E-14
   1.31062519E-03  -1.62118580E-01  -5.58331037E-14
   1.31062519E-03  -1.62118580E-01  -5.56750998E-14
   1.31062519E-03  -1.62118580E-01  -5.57566535E-14
   1.31062519E-03  -1.62118580E-01  -5.58004443E-14
   1.31062519E-03  -1.62118580E-01  -5.58142888E-14
   2.18786969E-12  -2.90499721E-01  -5.57378416E-14
   2.18767655E-12  -2.90499721E-01  -5.57797055E-14
   2.18772335E-12  -2.90499721E-01  -5.56329750E-14
   2.18799742E-12  -2.90499721E-01  -5.56199610E-14
   2.18777972E-12  -2.90499721E-01  -5.57634151E-14
   2.09406381E-03  -5.73840174E-02  -5.58246061E-14
   1.72810366E-03  -1.11509459E-01  -5.58402538E-14
   2.36346662E-03   2.38881190E-12  -5.58571464E-14
   2.36346662E-03   2.38878946E-12  -5.58225164E-14
   2.36346662E-03   2.38860347E-12  -5.57735880E-14
   2.36346662E-03   2.38872669E-12  -5.57578339E-14
   2.36346662E-03   2.38873325E-12  -5.59257902E-14
   1.72810366E-03   1.11509459E-01  -5.55779556E-14
   2.09406380E-03   5.73840179E-02  -5.58765345E-14
   1.31062518E-03   1.62118580E-01  -5.58462155E-14
   1.31062518E-03   1.62118580E-01  -5.57437681E-14
   1.31062518E-03   1.62118580E-01  -5.57880514E-14
   1.31062518E-03   1.62118580E-01  -5.57049011E-14
   1.31062518E-03   1.62118580E-01  -5.56931092E-14
   4.23994706E-04   2.51788670E-01  -5.57547440E-14
   8.78422594E-04   2.08942209E-01  -5.58276580E-14
  -2.29182404E-12   2.90499721E-01  -5.56338615E-14
  -2.29198008E-12   2.90499721E-01  -5.57346723E-14
  -2.29225337E-12   2.90499721E-01  -5.56077919E-14
  -2.29203964E-12   2.90499721E-01  -5.56708957E-14
  -2.29193681E-12   2.90499721E-01  -5.57460874E-14
  -8.78422600E-04   2.08942209E-01  -5.53316458E-14
  -4.23994714E-04   2.51788669E-01  -5.56086742E-14
  -1.31062519E-03   1.62118580E-01  -5.55805209E-14
  -1.31062519E-03   1.62118580E-01  -5.57348618E-14
  -1.31062519E-03   1.62118580E-01  -5.57163140E-14
  -1.31062519E-03   1.62118580E-01  -5.56499822E-14
  -1.31062519E-03   1.62118580E-01  -5.56858455E-14
  -2.09406381E-03   5.73840174E-02  -5.56208638E-14
  -1.72810366E-03   1.11509459E-01  -5.56076648E-14
  -2.36346662E-03  -2.17912494E-12  -5.56689928E-14
  -2.36346662E-03  -2.17898030E-12  -5.57249007E-14
  -2.36346662E-03  -2.17912838E-12  -5.56505648E-14
  -2.36346662E-03  -2.17926451E-12  -5.55718239E-14
  -2.36346662E-03  -2.17929847E-12  -5.55731210E-14
  -1.72810366E-03  -1.11509459E-01  -5.56345296E-14
  -2.09406380E-03  -5.73840179E-02  -5.55828135E-14
  -1.31062518E-03  -1.62118580E-01  -5.57209541E-14
  -1.31062518E-03  -1.62118580E-01  -5.56290369E-14
  -1.31062518E-03  -1.62118580E-01  -5.56441535E-14
  -1.31062518E-03  -1.62118580E-01  -5.57538144E-14
  -1.31062518E-03  -1.62118580E-01  -5.56372724E-14
  -4.23994706E-04  -2.51788670E-01  -5.56484858E-14
  -8.78422594E-04  -2.08942209E-01  -5.56382121E-14
   4.96400858E-04  -5.39445158E-02  -5.56194795E-14
   9.49856131E-04  -1.07958663E-01  -5.57074605E-14
   9.49856129E-04   1.07958663E-01  -5.58061616E-14
   4.96400857E-04   5.39445158E-02  -5.56431440E-14
  -5.20706991E-14   1.04732785E-13  -5.56895662E-14
  -5.21229453E-14   1.04861067E-13  -5.57267716E-14
  -5.21917337E-14   1.04765754E-13  -5.57866307E-14
  -5.22759145E-14   1.04843323E-13  -5.57140667E-14
  -5.21547637E-14   1.04716294E-13  -5.56678755E-14
  -9.49856131E-04   1.07958663E-01  -5.55044558E-14
  -4.96400858E-04   5.39445158E-02  -5.53672155E-14
  -9.49856129E-04  -1.07958663E-01  -5.56828374E-14
  -4.96400857E-04  -5.39445158E-02  -5.55865525E-14
   9.03229766E-02  -6.79719576E-02  -5.49007776E-14
   7.39237028E-02  -1.46347949E-01  -5.54266194E-14
   4.64003025E-02  -2.34010213E-01  -5.55895172E-14
   9.63597628E-02  -2.92536405E-02  -5.43782960E-14
   9.16436723E-02  -8.35980575E-02  -5.39479955E-14
   6.62721940E-02  -1.69616664E-01  -5.45362740E-14
  -9.63597629E-02  -2.92536405E-02  -5.41002804E-14
  -9.16436723E-02  -8.35980575E-02  -5.41154637E-14
  -6.62721941E-02  -1.69616664E-01  -5.51554093E-14
  -9.03229765E-02  -6.79719576E-02  -5.46158767E-14
  -7.39237027E-02  -1.46347949E-01  -5.52577838E-14
  -4.64003024E-02  -2.34010213E-01  -5.59832877E-14
   1.00414201E-03  -7.81849203E-03  -5.46235644E-14
   3.74668769E-03  -2.37446530E-02  -5.53314780E-14
   4.63042040E-03  -5.03448319E-02  -5.55437051E-14
  -1.54505508E-02  -6.17510260E-03  -5.31955587E-14
  -2.04695793E-02  -3.04807032E-02  -5.35893298E-14
  -1.37548955E-02  -8.07968019E-02  -5.45632709E-14
  -1.54505507E-02   6.17510259E-03  -5.28243316E-14
  -2.04695792E-02   3.04807031E-02  -5.32534222E-14
  -1.37548954E-02   8.07968017E-02  -5.46628635E-14
   1.00414200E-03   7.81849202E-03  -5.47300252E-14
   3.74668770E-03   2.37446529E-02  -5.49690901E-14
   4.63042043E-03   5.03448317E-02  -5.53146453E-14
  -9.03229766E-02   6.79719576E-02  -5.57207026E-14
  -7.39237028E-02   1.46347949E-01  -5.54824135E-14
  -4.64003025E-02   2.34010213E-01  -5.59590677E-14
  -9.63597628E-02   2.92536405E-02  -5.29874716E-14
  -9.16436723E-02   8.35980575E-02  -5.37441461E-14
  -6.62721940E-02   1.69616664E-01  -5.44908475E-14
   9.63597629E-02   2.92536405E-02  -5.31913548E-14
   9.16436723E-02   8.35980575E-02  -5.35519140E-14
   6.62721941E-02   1.69616664E-01  -5.43780942E-14
   9.03229765E-02   6.79719576E-02  -5.41075219E-14
   7.39237027E-02   1.46347949E-01  -5.47394173E-14
   4.64003024E-02   2.34010213E-01  -5.55287272E-14
  -1.00414201E-03   7.81849203E-03  -5.48078862E-14
  -3.74668769E-03   2.37446530E-02  -5.52223344E-14
  -4.63042040E-03   5.03448319E-02  -5.56259817E-14
   1.54505508E-02   6.17510260E-03  -5.32068178E-14
   2.04695793E-02   3.04807032E-02  -5.36106418E-14
   1.37548955E-02   8.07968019E-02  -5.48877099E-14
   1.54505507E-02  -6.17510259E-03  -5.35346465E-14
   2.04695792E-02  -3.04807031E-02  -5.39039117E-14
   1.37548954E-02  -8.07968017E-02  -5.50407489E-14
  -1.00414200E-03  -7.81849202E-03  -5.50019021E-14
  -3.74668770E-03  -2.37446529E-02  -5.52926993E-14