<?xml version="1.0"?>
<VTKFile type="UnstructuredGrid" version="0.1">
  <UnstructuredGrid>
    <Piece NumberOfPoints="1183" NumberOfCells="936">
      <Points>
        <DataArray type="Float64" NumberOfComponents="3" format="ascii">
  -5.00000000E-01  -5.00000000E-01   0.00000000E+00
   5.00000000E-01  -5.00000000E-01   0.00000000E+00
   5.00000000E-01   5.00000000E-01   0.00000000E+00
  -5.00000000E-01   5.00000000E-01   0.00000000E+00
   0.00000000E+00   0.00000000E+00   0.00000000E+00
   0.00000000E+00   3.50000000E-01   0.00000000E+00
  -3.50000000E-01   0.00000000E+00   0.00000000E+00
   0.00000000E+00  -3.50000000E-01   0.00000000E+00
   3.50000000E-01   0.00000000E+00   0.00000000E+00
   2.47487373E-01   2.47487373E-01   0.00000000E+00
  -2.47487373E-01   2.47487373E-01   0.00000000E+00
  -2.47487373E-01  -2.47487373E-01   0.00000000E+00
   2.47487373E-01  -2.47487373E-01   0.00000000E+00
   0.00000000E+00   3.00000000E-01   0.00000000E+00
  -3.00000000E-01   0.00000000E+00   0.00000000E+00
   0.00000000E+00  -3.00000000E-01   0.00000000E+00
   3.00000000E-01   0.00000000E+00   0.00000000E+00
  -1.67083203E-01   1.67083203E-01   0.00000000E+00
  -1.67083203E-01  -1.67083203E-01   0.00000000E+00
   1.67083203E-01  -1.67083203E-01   0.00000000E+00
   1.67083203E-01   1.67083203E-01   0.00000000E+00
   0.00000000E+00  -5.00000000E-01   0.00000000E+00
   5.00000000E-01   0.00000000E+00   0.00000000E+00
   0.00000000E+00   5.00000000E-01   0.00000000E+00
  -5.00000000E-01   0.00000000E+00   0.00000000E+00
   0.00000000E+00   5.00000000E-01   1.00000000E+00
  -5.00000000E-01   5.00000000E-01   1.00000000E+00
  -2.47487373E-01   2.47487373E-01   1.00000000E+00
   0.00000000E+00   0.00000000E+00   1.00000000E+00
   0.00000000E+00   3.50000000E-01   1.00000000E+00
   5.00000000E-01   5.00000000E-01   1.00000000E+00
   2.47487373E-01   2.47487373E-01   1.00000000E+00
   5.00000000E-01   0.00000000E+00   1.00000000E+00
   3.50000000E-01   0.00000000E+00   1.00000000E+00
   5.00000000E-01  -5.00000000E-01   1.00000000E+00
   2.47487373E-01  -2.47487373E-01   1.00000000E+00
   0.00000000E+00  -5.00000000E-01   1.00000000E+00
   0.00000000E+00  -3.50000000E-01   1.00000000E+00
  -5.00000000E-01  -5.00000000E-01   1.00000000E+00
  -2.47487373E-01  -2.47487373E-01   1.00000000E+00
  -5.00000000E-01   0.00000000E+00   1.00000000E+00
  -3.50000000E-01   0.00000000E+00   1.00000000E+00
  -1.67083203E-01   1.67083203E-01   1.00000000E+00
   0.00000000E+00   3.00000000E-01   1.00000000E+00
  -3.00000000E-01   0.00000000E+00   1.00000000E+00
  -1.67083203E-01  -1.67083203E-01   1.00000000E+00
   0.00000000E+00  -3.00000000E-01   1.00000000E+00
   1.67083203E-01  -1.67083203E-01   1.00000000E+00
   3.00000000E-01   0.00000000E+00   1.00000000E+00
   1.67083203E-01   1.67083203E-01   1.00000000E+00
  -3.33333333E-01  -5.00000000E-01   0.00000000E+00
  -1.66666667E-01  -5.00000000E-01   0.00000000E+00
   1.66666667E-01  -5.00000000E-01   0.00000000E+00
   3.33333333E-01  -5.00000000E-01   0.00000000E+00
   5.00000000E-01  -3.33333333E-01   0.00000000E+00
   5.00000000E-01  -1.66666667E-01   0.00000000E+00
   5.00000000E-01   1.66666667E-01   0.00000000E+00
   5.00000000E-01   3.33333333E-01   0.00000000E+00
   3.33333333E-01   5.00000000E-01   0.00000000E+00
   1.66666667E-01   5.00000000E-01   0.00000000E+00
  -1.66666667E-01   5.00000000E-01   0.00000000E+00
  -3.33333333E-01   5.00000000E-01   0.00000000E+00
  -5.00000000E-01   3.33333333E-01   0.00000000E+00
  -5.00000000E-01   1.66666667E-01   0.00000000E+00
  -5.00000000E-01  -1.66666667E-01   0.00000000E+00
  -5.00000000E-01  -3.33333333E-01   0.00000000E+00
  -9.05866661E-02   3.38074039E-01   0.00000000E+00
  -1.75000000E-01   3.03108891E-01   0.00000000E+00
  -3.03108891E-01   1.75000000E-01   0.00000000E+00
  -3.38074039E-01   9.05866654E-02   0.00000000E+00
  -3.38074039E-01  -9.05866661E-02   0.00000000E+00
  -3.03108891E-01  -1.75000000E-01   0.00000000E+00
  -1.75000000E-01  -3.03108891E-01   0.00000000E+00
  -9.05866654E-02  -3.38074039E-01   0.00000000E+00
   9.05866661E-02  -3.38074039E-01   0.00000000E+00
   1.75000000E-01  -3.03108891E-01   0.00000000E+00
   3.03108891E-01  -1.75000000E-01   0.00000000E+00
   3.38074039E-01  -9.05866654E-02   0.00000000E+00
   3.38074039E-01   9.05866661E-02   0.00000000E+00
   3.03108891E-01   1.75000000E-01   0.00000000E+00
   1.75000000E-01   3.03108891E-01   0.00000000E+00
   9.05866654E-02   3.38074039E-01   0.00000000E+00
  -4.36871843E-01   4.36871843E-01   0.00000000E+00
  -3.73743687E-01   3.73743687E-01   0.00000000E+00
  -3.10615530E-01   3.10615530E-01   0.00000000E+00
  -4.36871843E-01  -4.36871843E-01   0.00000000E+00
  -3.73743687E-01  -3.73743687E-01   0.00000000E+00
  -3.10615530E-01  -3.10615530E-01   0.00000000E+00
   4.36871843E-01  -4.36871843E-01   0.00000000E+00
   3.73743687E-01  -3.73743687E-01   0.00000000E+00
   3.10615530E-01  -3.10615530E-01   0.00000000E+00
   4.36871843E-01   4.36871843E-01   0.00000000E+00
   3.73743687E-01   3.73743687E-01   0.00000000E+00
   3.10615530E-01   3.10615530E-01   0.00000000E+00
   0.00000000E+00   4.62500000E-01   0.00000000E+00
   0.00000000E+00   4.25000000E-01   0.00000000E+00
   0.00000000E+00   3.87500000E-01   0.00000000E+00
  -4.62500000E-01   0.00000000E+00   0.00000000E+00
  -4.25000000E-01   0.00000000E+00   0.00000000E+00
  -3.87500000E-01   0.00000000E+00   0.00000000E+00
   0.00000000E+00  -4.62500000E-01   0.00000000E+00
   0.00000000E+00  -4.25000000E-01   0.00000000E+00
   0.00000000E+00  -3.87500000E-01   0.00000000E+00
   4.62500000E-01   0.00000000E+00   0.00000000E+00
   4.25000000E-01   0.00000000E+00   0.00000000E+00
   3.87500000E-01   0.00000000E+00   0.00000000E+00
  -5.89939545E-02   2.59951156E-01   0.00000000E+00
  -1.14794611E-01   2.15561029E-01   0.00000000E+00
  -2.15561030E-01   1.14794610E-01   0.00000000E+00
  -2.59951156E-01   5.89939540E-02   0.00000000E+00
  -2.59951156E-01  -5.89939545E-02   0.00000000E+00
  -2.15561029E-01  -1.14794611E-01   0.00000000E+00
  -1.14794610E-01  -2.15561030E-01   0.00000000E+00
  -5.89939540E-02  -2.59951156E-01   0.00000000E+00
   5.89939545E-02  -2.59951156E-01   0.00000000E+00
   1.14794611E-01  -2.15561029E-01   0.00000000E+00
   2.15561030E-01  -1.14794610E-01   0.00000000E+00
   2.59951156E-01  -5.89939540E-02   0.00000000E+00
   2.59951156E-01   5.89939545E-02   0.00000000E+00
   2.15561029E-01   1.14794611E-01   0.00000000E+00
   1.14794610E-01   2.15561030E-01   0.00000000E+00
   5.89939540E-02   2.59951156E-01   0.00000000E+00
  -5.56944011E-02   5.56944011E-02   0.00000000E+00
  -1.11388802E-01   1.11388802E-01   0.00000000E+00
  -5.56944011E-02  -5.56944011E-02   0.00000000E+00
  -1.11388802E-01  -1.11388802E-01   0.00000000E+00
   5.56944011E-02  -5.56944011E-02   0.00000000E+00
   1.11388802E-01  -1.11388802E-01   0.00000000E+00
   5.56944011E-02   5.56944011E-02   0.00000000E+00
   1.11388802E-01   1.11388802E-01   0.00000000E+00
  -1.66666667E-01   5.00000000E-01   1.00000000E+00
  -3.33333333E-01   5.00000000E-01   1.00000000E+00
  -4.36871843E-01   4.36871843E-01   1.00000000E+00
  -3.73743687E-01   3.73743687E-01   1.00000000E+00
  -3.10615530E-01   3.10615530E-01   1.00000000E+00
  -1.75000000E-01   3.03108891E-01   1.00000000E+00
  -9.05866661E-02   3.38074039E-01   1.00000000E+00
   0.00000000E+00   3.87500000E-01   1.00000000E+00
   0.00000000E+00   4.25000000E-01   1.00000000E+00
   0.00000000E+00   4.62500000E-01   1.00000000E+00
   0.00000000E+00   5.00000000E-01   1.66666667E-01
   0.00000000E+00   5.00000000E-01   3.33333333E-01
   0.00000000E+00   5.00000000E-01   5.00000000E-01
   0.00000000E+00   5.00000000E-01   6.66666667E-01
   0.00000000E+00   5.00000000E-01   8.33333333E-01
  -5.00000000E-01   5.00000000E-01   1.66666667E-01
  -5.00000000E-01   5.00000000E-01   3.33333333E-01
  -5.00000000E-01   5.00000000E-01   5.00000000E-01
  -5.00000000E-01   5.00000000E-01   6.66666667E-01
  -5.00000000E-01   5.00000000E-01   8.33333333E-01
  -2.47487373E-01   2.47487373E-01   1.66666667E-01
  -2.47487373E-01   2.47487373E-01   3.33333333E-01
  -2.47487373E-01   2.47487373E-01   5.00000000E-01
  -2.47487373E-01   2.47487373E-01   6.66666667E-01
  -2.47487373E-01   2.47487373E-01   8.33333333E-01
   0.00000000E+00   3.50000000E-01   1.66666667E-01
   0.00000000E+00   3.50000000E-01   3.33333333E-01
   0.00000000E+00   3.50000000E-01   5.00000000E-01
   0.00000000E+00   3.50000000E-01   6.66666667E-01
   0.00000000E+00   3.50000000E-01   8.33333333E-01
   3.33333333E-01   5.00000000E-01   1.00000000E+00
   1.66666667E-01   5.00000000E-01   1.00000000E+00
   9.05866654E-02   3.38074039E-01   1.00000000E+00
   1.75000000E-01   3.03108891E-01   1.00000000E+00
   3.10615530E-01   3.10615530E-01   1.00000000E+00
   3.73743687E-01   3.73743687E-01   1.00000000E+00
   4.36871843E-01   4.36871843E-01   1.00000000E+00
   5.00000000E-01   5.00000000E-01   1.66666667E-01
   5.00000000E-01   5.00000000E-01   3.33333333E-01
   5.00000000E-01   5.00000000E-01   5.00000000E-01
   5.00000000E-01   5.00000000E-01   6.66666667E-01
   5.00000000E-01   5.00000000E-01   8.33333333E-01
   2.47487373E-01   2.47487373E-01   1.66666667E-01
   2.47487373E-01   2.47487373E-01   3.33333333E-01
   2.47487373E-01   2.47487373E-01   5.00000000E-01
   2.47487373E-01   2.47487373E-01   6.66666667E-01
   2.47487373E-01   2.47487373E-01   8.33333333E-01
   5.00000000E-01   1.66666667E-01   1.00000000E+00
   5.00000000E-01   3.33333333E-01   1.00000000E+00
   3.03108891E-01   1.75000000E-01   1.00000000E+00
   3.38074039E-01   9.05866661E-02   1.00000000E+00
   3.87500000E-01   0.00000000E+00   1.00000000E+00
   4.25000000E-01   0.00000000E+00   1.00000000E+00
   4.62500000E-01   0.00000000E+00   1.00000000E+00
   5.00000000E-01   0.00000000E+00   1.66666667E-01
   5.00000000E-01   0.00000000E+00   3.33333333E-01
   5.00000000E-01   0.00000000E+00   5.00000000E-01
[...]
      <PointData Vectors="Displacement">
        <DataArray type="Float64" Name="Displacement" NumberOfComponents="3" format="ascii">
   1.19975525E-16   1.05249263E-15   4.51198594E-16
  -9.03302445E-16   1.44922413E-15  -3.27986270E-16
  -3.18728597E-15   3.63830109E-16  -1.12451377E-15
  -1.10471147E-15   5.45821976E-16  -3.40512685E-16
  -6.13241028E-14  -6.79449655E-14  -1.54499987E-14
  -1.71225456E-01  -3.45681166E-13  -1.57414911E-14
  -3.38720289E-13   1.71225456E-01  -1.48500267E-14
   1.71225456E-01   2.09405271E-13  -1.49717679E-14
   2.16537648E-13  -1.71225456E-01  -1.58555886E-14
  -1.21383833E-01  -1.21383833E-01  -1.59699012E-14
  -1.21383833E-01   1.21383833E-01  -1.52329915E-14
   1.21383833E-01   1.21383833E-01  -1.49549323E-14
   1.21383833E-01  -1.21383833E-01  -1.54973063E-14
  -1.46931839E-01  -4.08557393E-13  -1.56813351E-14
  -4.01680104E-13   1.46931839E-01  -1.49282134E-14
   1.46931839E-01   2.72316145E-13  -1.50927025E-14
   2.79371042E-13  -1.46931839E-01  -1.58593838E-14
  -8.20393823E-02   8.20393823E-02  -1.52775766E-14
   8.20393823E-02   8.20393823E-02  -1.50120725E-14
   8.20393823E-02  -8.20393823E-02  -1.55152214E-14
  -8.20393823E-02  -8.20393823E-02  -1.58894322E-14
  -5.93277395E-14  -6.66167241E-14  -1.50759888E-14
  -6.12825449E-14  -6.38149081E-14  -1.63038581E-14
  -5.79216323E-14  -6.65203710E-14  -1.59930606E-14
  -6.12571391E-14  -6.54924691E-14  -1.45450993E-14
  -5.92325650E-14  -6.78481426E-14  -1.51839701E-14
  -1.37743630E-15  -6.23091577E-16  -5.59511946E-16
  -1.21383833E-01   1.21383833E-01  -1.52414495E-14
  -5.94194413E-14  -6.75833179E-14  -1.54273592E-14
  -1.71225456E-01  -3.45105800E-13  -1.56639854E-14
  -6.40268373E-16   3.26660363E-16  -2.46924674E-15
  -1.21383833E-01  -1.21383833E-01  -1.61356242E-14
  -6.00059082E-14  -6.42002202E-14  -1.62959660E-14
   2.17955949E-13  -1.71225456E-01  -1.60915450E-14
   3.60095233E-15   2.16704450E-15  -1.79853196E-15
   1.21383833E-01  -1.21383833E-01  -1.55851382E-14
  -5.55162253E-14  -7.13743450E-14  -1.66014582E-14
   1.71225456E-01   2.10163835E-13  -1.51569687E-14
   6.77527561E-16  -1.24603357E-16   3.88116466E-16
   1.21383833E-01   1.21383833E-01  -1.48377398E-14
  -5.93502995E-14  -6.63741889E-14  -1.47290085E-14
  -3.36959096E-13   1.71225456E-01  -1.48775764E-14
  -8.20393823E-02   8.20393823E-02  -1.53205606E-14
  -1.46931839E-01  -4.08188630E-13  -1.56310889E-14
  -4.00040536E-13   1.46931839E-01  -1.49732919E-14
   8.20393823E-02   8.20393823E-02  -1.51806104E-14
   1.46931839E-01   2.73333348E-13  -1.51919712E-14
   8.20393823E-02  -8.20393823E-02  -1.55436607E-14
   2.81126829E-13  -1.46931839E-01  -1.59680210E-14
  -8.20393823E-02  -8.20393823E-02  -1.57936803E-14
  -7.79656172E-12   8.94257231E-02  -1.71964192E-14
   1.18175630E-11   9.56832802E-02  -1.21446443E-14
  -1.19320849E-11  -9.56832802E-02  -1.53030527E-14
   7.69585561E-12  -8.94257231E-02  -1.69588529E-14
   8.94257231E-02   7.69291347E-12  -1.57898585E-14
   9.56832802E-02  -1.19384792E-11  -1.56481101E-14
  -9.56832802E-02   1.18126836E-11  -1.61195469E-14
  -8.94257231E-02  -7.80386630E-12  -1.63813975E-14
   7.69559780E-12  -8.94257231E-02  -1.63325033E-14
  -1.19343700E-11  -9.56832802E-02  -1.48772025E-14
   1.18179428E-11   9.56832802E-02  -1.70719106E-14
  -7.79793286E-12   8.94257231E-02  -1.44013290E-14
  -8.94257231E-02  -7.80077431E-12  -1.48298383E-14
  -9.56832802E-02   1.18106490E-11  -1.46141500E-14
   9.56832802E-02  -1.19396972E-11  -1.40642733E-14
   8.94257231E-02   7.69044515E-12  -1.47617347E-14
  -1.65456803E-01   4.46813358E-02  -1.55652889E-14
  -1.48475316E-01   8.60598289E-02  -1.52709109E-14
  -8.60598287E-02   1.48475316E-01  -1.50540719E-14
  -4.46813355E-02   1.65456804E-01  -1.49381294E-14
   4.46813358E-02   1.65456803E-01  -1.49302792E-14
   8.60598289E-02   1.48475316E-01  -1.48476730E-14
   1.48475316E-01   8.60598287E-02  -1.49360124E-14
   1.65456804E-01   4.46813355E-02  -1.50379245E-14
   1.65456803E-01  -4.46813358E-02  -1.54288085E-14
   1.48475316E-01  -8.60598289E-02  -1.53405696E-14
   8.60598287E-02  -1.48475316E-01  -1.55549528E-14
   4.46813355E-02  -1.65456804E-01  -1.56419252E-14
  -4.46813358E-02  -1.65456803E-01  -1.60748243E-14
  -8.60598289E-02  -1.48475316E-01  -1.59653925E-14
  -1.48475316E-01  -8.60598287E-02  -1.59551101E-14
  -1.65456804E-01  -4.46813355E-02  -1.59592880E-14
  -3.92614840E-02   3.92614840E-02  -1.08911421E-14
  -7.46786364E-02   7.46786364E-02  -1.36119262E-14
  -1.04928521E-01   1.04928521E-01  -1.45774679E-14
   3.92614840E-02   3.92614840E-02  -1.07278412E-14
   7.46786364E-02   7.46786364E-02  -1.34458676E-14
   1.04928521E-01   1.04928521E-01  -1.44203927E-14
   3.92614840E-02  -3.92614840E-02  -1.19504199E-14
   7.46786364E-02  -7.46786364E-02  -1.48045123E-14
   1.04928521E-01  -1.04928521E-01  -1.53655864E-14
  -3.92614840E-02  -3.92614840E-02  -1.25180916E-14
  -7.46786364E-02  -7.46786364E-02  -1.48008726E-14
  -1.04928521E-01  -1.04928521E-01  -1.56366281E-14
  -3.38632812E-02   7.55846584E-12  -1.57516243E-14
  -7.21992572E-02   1.40076020E-11  -1.57699306E-14
  -1.17148649E-01   1.36550066E-11  -1.57316558E-14
   7.56461448E-12   3.38632812E-02  -1.46122694E-14
   1.40142224E-11   7.21992572E-02  -1.47846620E-14
   1.36615731E-11   1.17148649E-01  -1.48480444E-14
   3.38632812E-02  -7.69306008E-12  -1.49034516E-14
   7.21992572E-02  -1.41429447E-11  -1.50070974E-14
   1.17148649E-01  -1.37907096E-11  -1.49761789E-14
  -7.68700006E-12  -3.38632812E-02  -1.62058345E-14
  -1.41365822E-11  -7.21992572E-02  -1.61386146E-14
  -1.37840981E-11  -1.17148649E-01  -1.60529307E-14
  -1.27425274E-01   2.90400408E-02  -1.55034702E-14
  -1.05744502E-01   5.64317762E-02  -1.52481781E-14
  -5.64317760E-02   1.05744503E-01  -1.51179759E-14
  -2.90400406E-02   1.27425274E-01  -1.50118414E-14
   2.90400408E-02   1.27425274E-01  -1.50084033E-14
   5.64317762E-02   1.05744502E-01  -1.50919308E-14
   1.05744503E-01   5.64317760E-02  -1.51529255E-14
   1.27425274E-01   2.90400406E-02  -1.50056087E-14
   1.27425274E-01  -2.90400408E-02  -1.53245001E-14
   1.05744502E-01  -5.64317762E-02  -1.55927133E-14
   5.64317760E-02  -1.05744503E-01  -1.56104583E-14
   2.90400406E-02  -1.27425274E-01  -1.56608632E-14
  -2.90400408E-02  -1.27425274E-01  -1.59019502E-14
  -5.64317762E-02  -1.05744502E-01  -1.57903544E-14
  -1.05744503E-01  -5.64317760E-02  -1.57951175E-14
  -1.27425274E-01  -2.90400406E-02  -1.57763173E-14
  -2.73627287E-02   2.73627287E-02  -1.53533816E-14
  -5.47143131E-02   5.47143131E-02  -1.52630147E-14
   2.73627287E-02   2.73627287E-02  -1.53161856E-14
   5.47143131E-02   5.47143131E-02  -1.52277010E-14
   2.73627287E-02  -2.73627287E-02  -1.54506444E-14
   5.47143131E-02  -5.47143131E-02  -1.54751608E-14
  -2.73627287E-02  -2.73627287E-02  -1.55459923E-14
  -5.47143131E-02  -5.47143131E-02  -1.57118930E-14
   1.18187419E-11   9.56832802E-02  -1.49591752E-14
  -7.79636713E-12   8.94257231E-02  -1.43610327E-14
  -3.92614840E-02   3.92614840E-02  -1.05731488E-14
  -7.46786364E-02   7.46786364E-02  -1.33763539E-14
  -1.04928521E-01   1.04928521E-01  -1.46430512E-14
  -1.48475316E-01   8.60598289E-02  -1.54330040E-14
  -1.65456803E-01   4.46813358E-02  -1.54488462E-14
  -1.17148649E-01   1.36551066E-11  -1.56082232E-14
  -7.21992572E-02   1.40076835E-11  -1.55743014E-14
  -3.38632812E-02   7.55785517E-12  -1.55305209E-14
  -6.09861141E-14  -6.84056983E-14  -1.57346870E-14
  -5.96430676E-14  -6.78547566E-14  -1.56319645E-14
  -5.96862985E-14  -6.79877234E-14  -1.55374825E-14
  -5.99200347E-14  -6.80852030E-14  -1.55731993E-14
  -5.89217086E-14  -6.79808692E-14  -1.55522841E-14
  -6.18458829E-14  -6.91994948E-14  -1.07725149E-14
  -6.09959690E-14  -6.77064989E-14  -1.34081631E-14
  -6.02181987E-14  -6.95646099E-14  -1.37376582E-14
  -6.00630757E-14  -6.71349073E-14  -1.34054548E-14
  -6.08595356E-14  -6.90121483E-14  -1.12316321E-14
  -1.21383833E-01   1.21383833E-01  -1.50878647E-14
  -1.21383833E-01   1.21383833E-01  -1.51251868E-14
  -1.21383833E-01   1.21383833E-01  -1.51059867E-14
  -1.21383833E-01   1.21383833E-01  -1.51102418E-14
  -1.21383833E-01   1.21383833E-01  -1.51993781E-14
  -1.71225456E-01  -3.45585272E-13  -1.56259797E-14
  -1.71225456E-01  -3.45580289E-13  -1.54291226E-14
  -1.71225456E-01  -3.45649806E-13  -1.55339506E-14
  -1.71225456E-01  -3.45733322E-13  -1.57581162E-14
  -1.71225456E-01  -3.45172913E-13  -1.57892762E-14
   7.69584576E-12  -8.94257231E-02  -1.60497478E-14
  -1.19319251E-11  -9.56832802E-02  -1.60687235E-14
  -1.65456804E-01  -4.46813355E-02  -1.57069399E-14
  -1.48475316E-01  -8.60598287E-02  -1.58896775E-14
  -1.04928521E-01  -1.04928521E-01  -1.56400847E-14
  -7.46786364E-02  -7.46786364E-02  -1.47938360E-14
  -3.92614840E-02  -3.92614840E-02  -1.21622254E-14
  -6.22174493E-14  -6.80664282E-14  -1.32780729E-14
  -5.98563586E-14  -6.55006267E-14  -1.58746075E-14
  -6.16452066E-14  -6.60047787E-14  -1.60190031E-14
  -6.01693300E-14  -6.53890641E-14  -1.51376289E-14
  -6.16200548E-14  -6.53678021E-14  -1.32838254E-14
  -1.21383833E-01  -1.21383833E-01  -1.60436691E-14
  -1.21383833E-01  -1.21383833E-01  -1.59237656E-14
  -1.21383833E-01  -1.21383833E-01  -1.60154808E-14
  -1.21383833E-01  -1.21383833E-01  -1.61244291E-14
  -1.21383833E-01  -1.21383833E-01  -1.60287335E-14
  -9.56832802E-02   1.18117597E-11  -1.57115559E-14
  -8.94257231E-02  -7.80074142E-12  -1.61571656E-14
  -8.60598289E-02  -1.48475316E-01  -1.63027246E-14
  -4.46813358E-02  -1.65456803E-01  -1.60749560E-14
  -1.37824198E-11  -1.17148649E-01  -1.61554649E-14
  -1.41352075E-11  -7.21992572E-02  -1.61818947E-14
  -7.68562852E-12  -3.38632812E-02  -1.62217002E-14
  -6.12323822E-14  -6.51472120E-14  -1.61469194E-14
  -6.10008084E-14  -6.62123409E-14  -1.61164183E-14
  -6.05955152E-14  -6.60171543E-14  -1.59252523E-14
  -6.01202398E-14  -6.52674265E-14  -1.61046181E-14
  -6.00006249E-14  -6.43902914E-14  -1.62721395E-14
   2.16589020E-13  -1.71225456E-01  -1.60021211E-14
   2.16962399E-13  -1.71225456E-01  -1.59242270E-14
   2.16928252E-13  -1.71225456E-01  -1.60346313E-14
   2.17441468E-13  -1.71225456E-01  -1.61406823E-14
   2.17614179E-13  -1.71225456E-01  -1.61496432E-14
   8.94257231E-02   7.69240555E-12  -1.66989262E-14
   9.56832802E-02  -1.19376134E-11  -1.57691549E-14
   4.46813355E-02  -1.65456804E-01  -1.57668186E-14
   8.60598287E-02  -1.48475316E-01  -1.56339058E-14
   1.04928521E-01  -1.04928521E-01  -1.51466951E-14
   7.46786364E-02  -7.46786364E-02  -1.42123010E-14
   3.92614840E-02  -3.92614840E-02  -1.23543557E-14
  -6.08987450E-14  -6.84655622E-14  -1.31132908E-14
  -5.98982048E-14  -6.76296446E-14  -1.43921079E-14
  -6.06889970E-14  -6.79367453E-14  -1.46479256E-14
  -5.74101000E-14  -6.44334625E-14  -1.46595619E-14
  -5.82614103E-14  -6.76685005E-14  -1.34090527E-14
   1.21383833E-01  -1.21383833E-01  -1.56506522E-14
   1.21383833E-01  -1.21383833E-01  -1.57900451E-14
   1.21383833E-01  -1.21383833E-01  -1.58479631E-14
   1.21383833E-01  -1.21383833E-01  -1.56830185E-14
   1.21383833E-01  -1.21383833E-01  -1.56193734E-14
  -1.19314258E-11  -9.56832802E-02  -1.29474529E-14
   7.70259689E-12  -8.94257231E-02  -1.61285507E-14
   1.48475316E-01  -8.60598289E-02  -1.55098815E-14
   1.65456803E-01  -4.46813358E-02  -1.51535918E-14
   1.17148649E-01  -1.37908330E-11  -1.52106020E-14
   7.21992572E-02  -1.41445376E-11  -1.52956604E-14
   3.38632812E-02  -7.69579858E-12  -1.57185856E-14
  -5.74912836E-14  -6.83257325E-14  -1.47373169E-14
  -5.97174732E-14  -6.80209909E-14  -1.49907252E-14
  -5.94057181E-14  -6.78313351E-14  -1.49029707E-14
  -5.77518433E-14  -6.81564150E-14  -1.49587968E-14
  -5.65045557E-14  -6.72567830E-14  -1.51611329E-14
   1.71225456E-01   2.09727951E-13  -1.52651489E-14
   1.71225456E-01   2.09385763E-13  -1.53833622E-14
   1.71225456E-01   2.09542793E-13  -1.51943345E-14
   1.71225456E-01   2.09608961E-13  -1.50721975E-14
   1.71225456E-01   2.09991452E-13  -1.49864258E-14
  -7.79422337E-12   8.94257231E-02  -1.37332142E-14
   1.18192217E-11   9.56832802E-02  -1.45876365E-14
   1.65456804E-01   4.46813355E-02  -1.50102125E-14
   1.48475316E-01   8.60598287E-02  -1.50813451E-14
   1.04928521E-01   1.04928521E-01  -1.41153005E-14
   7.46786364E-02   7.46786364E-02  -1.28857424E-14
   3.92614840E-02   3.92614840E-02  -1.03577973E-14
  -6.10001600E-14  -6.84374795E-14  -1.15790752E-14
  -5.98323743E-14  -6.69574668E-14  -1.26856451E-14
  -6.08975392E-14  -6.86345781E-14  -1.28422989E-14
  -5.78793790E-14  -6.72951225E-14  -1.25952438E-14
  -5.88598131E-14  -6.78648688E-14  -1.04470856E-14
   1.21383833E-01   1.21383833E-01  -1.50095374E-14
   1.21383833E-01   1.21383833E-01  -1.48307300E-14
   1.21383833E-01   1.21383833E-01  -1.47146713E-14
   1.21383833E-01   1.21383833E-01  -1.47029318E-14
   1.21383833E-01   1.21383833E-01  -1.48621371E-14
   9.56832802E-02  -1.19398447E-11  -1.42243198E-14
   8.94257231E-02   7.69019888E-12  -1.42418981E-14
   8.60598289E-02   1.48475316E-01  -1.48399880E-14
   4.46813358E-02   1.65456803E-01  -1.48656906E-14
   1.36633858E-11   1.17148649E-01  -1.48000950E-14
   1.40157850E-11   7.21992572E-02  -1.46820783E-14
   7.56608113E-12   3.38632812E-02  -1.47096695E-14
  -6.12313786E-14  -6.66216340E-14  -1.46638491E-14
  -6.08769367E-14  -6.72501150E-14  -1.44684043E-14
  -6.03893519E-14  -6.79475419E-14  -1.45323297E-14
  -6.01028561E-14  -6.75005152E-14  -1.44874308E-14
  -5.99377710E-14  -6.60391894E-14  -1.44634824E-14
  -3.38593803E-13   1.71225456E-01  -1.48934678E-14
  -3.38350985E-13   1.71225456E-01  -1.48189707E-14
  -3.38133584E-13   1.71225456E-01  -1.47489300E-14
  -3.37809878E-13   1.71225456E-01  -1.47743709E-14
  -3.37350205E-13   1.71225456E-01  -1.48604607E-14
  -8.94257231E-02  -7.80173215E-12  -1.47125888E-14
  -9.56832802E-02   1.18111505E-11  -1.41691321E-14
  -4.46813355E-02   1.65456804E-01  -1.49189416E-14
  -8.60598287E-02   1.48475316E-01  -1.52074816E-14
  -1.05744502E-01   5.64317762E-02  -1.55228896E-14
  -1.27425274E-01   2.90400408E-02  -1.55802177E-14
  -8.20393823E-02   8.20393823E-02  -1.52052239E-14
  -8.20393823E-02   8.20393823E-02  -1.51716788E-14
  -8.20393823E-02   8.20393823E-02  -1.52146487E-14
  -8.20393823E-02   8.20393823E-02  -1.52308673E-14
  -8.20393823E-02   8.20393823E-02  -1.53179135E-14
  -1.46931839E-01  -4.08756082E-13  -1.55958054E-14
  -1.46931839E-01  -4.08580593E-13  -1.54329936E-14
  -1.46931839E-01  -4.08643689E-13  -1.55256564E-14
  -1.46931839E-01  -4.08792505E-13  -1.56879906E-14
  -1.46931839E-01  -4.08100596E-13  -1.57421351E-14
  -2.90400406E-02   1.27425274E-01  -1.50525850E-14
  -5.64317760E-02   1.05744503E-01  -1.51601986E-14
  -4.01682973E-13   1.46931839E-01  -1.49741913E-14
  -4.01369442E-13   1.46931839E-01  -1.48930469E-14
  -4.01181592E-13   1.46931839E-01  -1.48441265E-14
  -4.00889043E-13   1.46931839E-01  -1.49029726E-14
  -4.00302035E-13   1.46931839E-01  -1.49552872E-14
   5.64317762E-02   1.05744502E-01  -1.50541788E-14
   2.90400408E-02   1.27425274E-01  -1.48513019E-14
   8.20393823E-02   8.20393823E-02  -1.50617978E-14
   8.20393823E-02   8.20393823E-02  -1.49953475E-14
   8.20393823E-02   8.20393823E-02  -1.50052549E-14
   8.20393823E-02   8.20393823E-02  -1.49407676E-14
   8.20393823E-02   8.20393823E-02  -1.49711129E-14
   1.27425274E-01   2.90400406E-02  -1.52116211E-14
   1.05744503E-01   5.64317760E-02  -1.50449937E-14
   1.46931839E-01   2.72709723E-13  -1.53129605E-14
   1.46931839E-01   2.72356343E-13  -1.53172139E-14
   1.46931839E-01   2.72508866E-13  -1.52288213E-14
   1.46931839E-01   2.72713570E-13  -1.50949765E-14
   1.46931839E-01   2.72914226E-13  -1.51048566E-14
   1.05744502E-01  -5.64317762E-02  -1.54227233E-14
   1.27425274E-01  -2.90400408E-02  -1.53886156E-14
   8.20393823E-02  -8.20393823E-02  -1.56463761E-14
   8.20393823E-02  -8.20393823E-02  -1.56326943E-14
   8.20393823E-02  -8.20393823E-02  -1.56318504E-14
   8.20393823E-02  -8.20393823E-02  -1.55990855E-14
   8.20393823E-02  -8.20393823E-02  -1.55867119E-14
   2.90400406E-02  -1.27425274E-01  -1.57438533E-14
   5.64317760E-02  -1.05744503E-01  -1.55664131E-14
   2.79611757E-13  -1.46931839E-01  -1.59164486E-14
   2.80005570E-13  -1.46931839E-01  -1.58618110E-14
   2.79964520E-13  -1.46931839E-01  -1.59401762E-14
   2.80515160E-13  -1.46931839E-01  -1.60317074E-14
   2.80605698E-13  -1.46931839E-01  -1.60611579E-14
  -5.64317762E-02  -1.05744502E-01  -1.59045951E-14
  -2.90400408E-02  -1.27425274E-01  -1.60031985E-14
  -8.20393823E-02  -8.20393823E-02  -1.57930674E-14
  -8.20393823E-02  -8.20393823E-02  -1.57534149E-14
  -8.20393823E-02  -8.20393823E-02  -1.58766305E-14
  -8.20393823E-02  -8.20393823E-02  -1.58699996E-14
  -8.20393823E-02  -8.20393823E-02  -1.58466197E-14
  -1.27425274E-01  -2.90400406E-02  -1.57511588E-14
  -1.05744503E-01  -5.64317760E-02  -1.58446178E-14
  -2.73627287E-02   2.73627287E-02  -1.54104229E-14
  -5.47143131E-02   5.47143131E-02  -1.52989991E-14
   5.47143131E-02   5.47143131E-02  -1.52044418E-14
   2.73627287E-02   2.73627287E-02  -1.52903253E-14
  -6.10467462E-14  -6.80327056E-14  -1.54430145E-14
  -6.07793347E-14  -6.80105693E-14  -1.53900298E-14
  -6.05582726E-14  -6.79980493E-14  -1.53822145E-14
  -6.01351110E-14  -6.78887134E-14  -1.53933121E-14
  -5.97723406E-14  -6.75633179E-14  -1.54547925E-14
   5.47143131E-02  -5.47143131E-02  -1.55348092E-14
   2.73627287E-02  -2.73627287E-02  -1.54381037E-14
  -5.47143131E-02  -5.47143131E-02  -1.56904826E-14
  -2.73627287E-02  -2.73627287E-02  -1.55739574E-14
  -3.28053155E-02   8.77456145E-02  -1.62096654E-14
  -6.82296612E-02   7.80907675E-02  -1.57698316E-14
  -1.10322822E-01   6.44809497E-02  -1.56365315E-14
  -3.36097718E-02   9.96640795E-02  -1.44475306E-14
  -6.76067649E-02   1.06230651E-01  -1.48052773E-14
  -1.03278097E-01   1.05483100E-01  -1.51274946E-14
  -3.36097717E-02  -9.96640795E-02  -1.52418170E-14
  -6.76067648E-02  -1.06230651E-01  -1.55072607E-14
  -1.03278097E-01  -1.05483100E-01  -1.57855490E-14
  -3.28053155E-02  -8.77456144E-02  -1.55189765E-14
  -6.82296612E-02  -7.80907673E-02  -1.56430380E-14
  -1.10322822E-01  -6.44809495E-02  -1.57962729E-14
  -8.77456145E-02  -3.28053155E-02  -1.61577478E-14
  -7.80907675E-02  -6.82296612E-02  -1.60805295E-14
  -6.44809497E-02  -1.10322822E-01  -1.59922035E-14
  -9.96640795E-02  -3.36097718E-02  -1.59125091E-14
  -1.06230651E-01  -6.76067649E-02  -1.56924677E-14
  -1.05483100E-01  -1.03278097E-01  -1.58620618E-14
   9.96640795E-02  -3.36097717E-02  -1.54269357E-14
   1.06230651E-01  -6.76067648E-02  -1.53270310E-14
   1.05483100E-01  -1.03278097E-01  -1.56049949E-14
   8.77456144E-02  -3.28053155E-02  -1.58440401E-14
   7.80907673E-02  -6.82296612E-02  -1.58864927E-14
   6.44809495E-02  -1.10322822E-01  -1.57875455E-14
   3.28053155E-02  -8.77456145E-02  -1.51144096E-14
   6.82296612E-02  -7.80907675E-02  -1.52787484E-14
   1.10322822E-01  -6.44809497E-02  -1.52691904E-14
   3.36097718E-02  -9.96640795E-02  -1.55217440E-14
   6.76067649E-02  -1.06230651E-01  -1.52244372E-14
   1.03278097E-01  -1.05483100E-01  -1.53579456E-14
   3.36097717E-02   9.96640795E-02  -1.46244528E-14
   6.76067648E-02   1.06230651E-01  -1.42918458E-14
   1.03278097E-01   1.05483100E-01  -1.45981850E-14
   3.28053155E-02   8.77456144E-02  -1.38642063E-14
   6.82296612E-02   7.80907673E-02  -1.44162394E-14
   1.10322822E-01   6.44809495E-02  -1.47654941E-14
   8.77456145E-02   3.28053155E-02  -1.44400757E-14
   7.80907675E-02   6.82296612E-02  -1.45220377E-14
   6.44809497E-02   1.10322822E-01  -1.46527075E-14
   9.96640795E-02   3.36097718E-02  -1.40748862E-14
   1.06230651E-01   6.76067649E-02  -1.43170613E-14
   1.05483100E-01   1.03278097E-01  -1.45809966E-14
  -9.96640795E-02   3.36097717E-02  -1.44749597E-14
  -1.06230651E-01   6.76067648E-02  -1.44950246E-14
  -1.05483100E-01   1.03278097E-01  -1.49042354E-14
  -8.77456144E-02   3.28053155E-02  -1.47737449E-14
  -7.80907673E-02   6.82296612E-02  -1.48907142E-14